REMARK SMILES CCC1(O)C(=O)OCc2c1cc1n(c2=O)Cc2c-1cc(CN(C)C)c1cc(O)ccc21
REMARK SMILES IDX 3 1 5 2 6 3 7 4 8 5 9 6 10 7 11 8 12 9 13 10 14 11 15 12
REMARK SMILES IDX 16 13 17 14 18 15 19 16 20 17 25 18 31 19 30 20 29 21 27 22
REMARK SMILES IDX 26 23 2 24 1 25 4 26 21 28 22 29 23 30 24 31 28 32
REMARK H PARENT 4 27 28 33
ROOT
ATOM      1  C   UNL     1      -4.409   1.292  -0.456  1.00  0.00    +0.187 C 
ATOM      2  C   UNL     1      -5.750   0.757  -1.004  1.00  0.00    +0.343 C 
ATOM      3  O   UNL     1      -6.493   1.493  -1.656  1.00  0.00    -0.248 OA
ATOM      4  O   UNL     1      -6.118  -0.505  -0.707  1.00  0.00    -0.458 OA
ATOM      5  C   UNL     1      -5.196  -1.520  -0.256  1.00  0.00    +0.275 C 
ATOM      6  C   UNL     1      -3.781  -1.079  -0.145  1.00  0.00    +0.062 C 
ATOM      7  C   UNL     1      -3.393   0.205  -0.244  1.00  0.00    +0.009 C 
ATOM      8  C   UNL     1      -1.983   0.556  -0.121  1.00  0.00    +0.035 C 
ATOM      9  C   UNL     1      -1.087  -0.410   0.102  1.00  0.00    +0.052 C 
ATOM     10  N   UNL     1      -1.479  -1.727   0.219  1.00  0.00    -0.303 N 
ATOM     11  C   UNL     1      -2.775  -2.160   0.112  1.00  0.00    +0.258 C 
ATOM     12  O   UNL     1      -3.123  -3.331   0.223  1.00  0.00    -0.269 OA
ATOM     13  C   UNL     1      -0.338  -2.608   0.460  1.00  0.00    +0.163 C 
ATOM     14  C   UNL     1       0.825  -1.651   0.477  1.00  0.00    -0.011 A 
ATOM     15  C   UNL     1       0.360  -0.344   0.260  1.00  0.00    +0.004 A 
ATOM     16  C   UNL     1       1.230   0.726   0.227  1.00  0.00    +0.016 A 
ATOM     17  C   UNL     1       2.608   0.494   0.413  1.00  0.00    -0.025 A 
ATOM     18  C   UNL     1       3.098  -0.838   0.632  1.00  0.00    -0.010 A 
ATOM     19  C   UNL     1       2.182  -1.926   0.667  1.00  0.00    -0.012 A 
ATOM     20  C   UNL     1       2.648  -3.238   0.888  1.00  0.00    +0.013 A 
ATOM     21  C   UNL     1       4.005  -3.498   1.075  1.00  0.00    +0.047 A 
ATOM     22  C   UNL     1       4.903  -2.444   1.039  1.00  0.00    +0.116 A 
ATOM     23  C   UNL     1       4.466  -1.140   0.821  1.00  0.00    +0.055 A 
ENDROOT
BRANCH   1  24
ATOM     24  C   UNL     1      -4.676   2.140   0.807  1.00  0.00    +0.049 C 
ATOM     25  C   UNL     1      -5.165   1.364   2.023  1.00  0.00    +0.008 C 
ENDBRANCH   1  24
BRANCH   1  26
ATOM     26  O   UNL     1      -3.889   2.194  -1.455  1.00  0.00    -0.374 OA
ATOM     27  H   UNL     1      -4.666   2.662  -1.826  1.00  0.00    +0.212 HD
ENDBRANCH   1  26
BRANCH  17  28
ATOM     28  C   UNL     1       3.534   1.703   0.375  1.00  0.00    +0.120 C 
BRANCH  28  29
ATOM     29  N   UNL     1       4.389   1.762  -0.822  1.00  0.00    -0.305 NA
ATOM     30  C   UNL     1       5.399   2.809  -0.667  1.00  0.00    +0.105 C 
ATOM     31  C   UNL     1       3.613   1.993  -2.041  1.00  0.00    +0.105 C 
ENDBRANCH  28  29
ENDBRANCH  17  28
BRANCH  22  32
ATOM     32  O   UNL     1       6.240  -2.646   1.215  1.00  0.00    -0.508 OA
ATOM     33  H   UNL     1       6.401  -3.598   1.317  1.00  0.00    +0.293 HD
ENDBRANCH  22  32
TORSDOF 5
