REMARK SMILES Cc1nc2c(C(=O)NC3(C)CCCN3)cccc2[nH]1
REMARK SMILES IDX 8 1 6 2 7 3 9 5 11 6 14 7 12 8 13 9 10 10 5 12 15 13 4 14
REMARK SMILES IDX 16 15 3 16 18 17 17 18 2 19 19 20 1 21
REMARK H PARENT 8 4 14 11 19 22
ROOT
ATOM      1  N   UNL     1      -0.849  -0.437   0.080  1.00  0.00    -0.334 N 
ATOM      2  C   UNL     1      -0.325  -1.582   0.638  1.00  0.00    +0.254 C 
ATOM      3  O   UNL     1      -0.975  -2.450   1.209  1.00  0.00    -0.269 OA
ATOM      4  H   UNL     1      -0.165   0.215  -0.299  1.00  0.00    +0.165 HD
ENDROOT
BRANCH   1   5
ATOM      5  C   UNL     1      -2.194   0.060   0.232  1.00  0.00    +0.088 C 
ATOM      6  C   UNL     1      -2.463   1.168  -0.796  1.00  0.00    +0.046 C 
ATOM      7  N   UNL     1      -2.209   0.789   1.498  1.00  0.00    -0.295 NA
ATOM      8  C   UNL     1      -3.421   2.114  -0.093  1.00  0.00    +0.019 C 
ATOM      9  C   UNL     1      -3.235   1.826   1.388  1.00  0.00    +0.083 C 
ATOM     10  C   UNL     1      -3.287  -1.015   0.169  1.00  0.00    +0.052 C 
ATOM     11  H   UNL     1      -1.296   1.227   1.594  1.00  0.00    +0.124 HD
ENDBRANCH   1   5
BRANCH   2  12
ATOM     12  C   UNL     1       1.147  -1.758   0.508  1.00  0.00    +0.067 A 
ATOM     13  C   UNL     1       1.753  -2.939   0.981  1.00  0.00    +0.016 A 
ATOM     14  C   UNL     1       1.973  -0.775  -0.071  1.00  0.00    +0.101 A 
ATOM     15  C   UNL     1       3.132  -3.136   0.877  1.00  0.00    +0.003 A 
ATOM     16  N   UNL     1       1.660   0.465  -0.606  1.00  0.00    -0.233 NA
ATOM     17  C   UNL     1       3.344  -1.003  -0.159  1.00  0.00    +0.066 A 
ATOM     18  C   UNL     1       3.961  -2.169   0.301  1.00  0.00    +0.028 A 
ATOM     19  C   UNL     1       2.801   0.981  -1.011  1.00  0.00    +0.104 A 
ATOM     20  N   UNL     1       3.844   0.124  -0.760  1.00  0.00    -0.342 N 
ATOM     21  C   UNL     1       3.003   2.299  -1.658  1.00  0.00    +0.087 C 
ATOM     22  H   UNL     1       4.815   0.295  -0.978  1.00  0.00    +0.168 HD
ENDBRANCH   2  12
TORSDOF 2
