REMARK SMILES C[C@]12CCCN1CC1=NNC(=O)c3cc(F)cc4[nH]c2c1c34
REMARK SMILES IDX 1 1 2 2 3 3 4 4 5 5 6 6 7 7 8 8 9 9 10 10 11 11 12 12 13 13
REMARK SMILES IDX 22 14 21 15 20 16 19 17 18 18 17 19 15 20 14 21 16 22
REMARK H PARENT 10 23 19 24
ROOT
ATOM      1  C   UNL     1       2.048  -2.051   0.692  1.00  0.00    +0.035 C 
ATOM      2  C   UNL     1       1.662  -0.665   0.131  1.00  0.00    +0.059 C 
ATOM      3  C   UNL     1       2.542  -0.280  -1.060  1.00  0.00    +0.030 C 
ATOM      4  C   UNL     1       3.777   0.367  -0.441  1.00  0.00    +0.018 C 
ATOM      5  C   UNL     1       3.427   0.614   1.023  1.00  0.00    +0.086 C 
ATOM      6  N   UNL     1       1.979   0.373   1.158  1.00  0.00    -0.287 NA
ATOM      7  C   UNL     1       1.257   1.669   0.978  1.00  0.00    +0.144 C 
ATOM      8  C   UNL     1      -0.265   1.501   0.869  1.00  0.00    +0.085 C 
ATOM      9  N   UNL     1      -1.038   2.436   1.323  1.00  0.00    -0.175 NA
ATOM     10  N   UNL     1      -2.398   2.501   1.254  1.00  0.00    -0.243 N 
ATOM     11  C   UNL     1      -3.415   1.782   0.657  1.00  0.00    +0.272 C 
ATOM     12  O   UNL     1      -4.566   2.216   0.773  1.00  0.00    -0.267 OA
ATOM     13  C   UNL     1      -3.230   0.535  -0.101  1.00  0.00    +0.054 A 
ATOM     14  C   UNL     1      -1.973  -0.048  -0.248  1.00  0.00    +0.022 A 
ATOM     15  C   UNL     1      -0.699   0.334   0.172  1.00  0.00    +0.030 A 
ATOM     16  C   UNL     1       0.200  -0.641  -0.198  1.00  0.00    +0.046 A 
ATOM     17  N   UNL     1      -0.493  -1.591  -0.904  1.00  0.00    -0.356 N 
ATOM     18  C   UNL     1      -1.831  -1.254  -0.940  1.00  0.00    +0.050 A 
ATOM     19  C   UNL     1      -2.921  -1.912  -1.516  1.00  0.00    +0.066 A 
ATOM     20  C   UNL     1      -4.170  -1.310  -1.366  1.00  0.00    +0.126 A 
ATOM     21  C   UNL     1      -4.337  -0.116  -0.675  1.00  0.00    +0.054 A 
ATOM     22  F   UNL     1      -5.243  -1.908  -1.903  1.00  0.00    -0.207 F 
ATOM     23  H   UNL     1      -2.766   3.329   1.717  1.00  0.00    +0.194 HD
ATOM     24  H   UNL     1      -0.102  -2.431  -1.310  1.00  0.00    +0.166 HD
ENDROOT
TORSDOF 0
