REMARK SMILES Cn1ncnc1[C@H]1c2n[nH]c(=O)c3cc(F)cc(c23)N[C@@H]1c1ccc(F)cc1
REMARK SMILES IDX 7 1 21 2 20 3 18 4 17 5 15 6 14 7 13 8 19 9 8 10 9 11 10 12
REMARK SMILES IDX 11 13 12 14 16 15 6 18 2 19 3 20 5 21 4 22 1 23 22 24 23 25
REMARK SMILES IDX 28 26 24 27 27 28 25 29 26 30
REMARK H PARENT 20 16 10 17
ROOT
ATOM      1  C   UNL     1      -0.216   0.521   0.022  1.00  0.00    +0.136 C 
ATOM      2  C   UNL     1       0.809  -0.577  -0.333  1.00  0.00    +0.126 C 
ATOM      3  N   UNL     1       0.374  -1.906   0.135  1.00  0.00    -0.376 N 
ATOM      4  C   UNL     1      -0.904  -2.278  -0.306  1.00  0.00    +0.048 A 
ATOM      5  C   UNL     1      -1.244  -3.633  -0.388  1.00  0.00    +0.065 A 
ATOM      6  C   UNL     1      -2.538  -4.016  -0.738  1.00  0.00    +0.126 A 
ATOM      7  C   UNL     1      -3.528  -3.074  -0.975  1.00  0.00    +0.054 A 
ATOM      8  C   UNL     1      -3.209  -1.723  -0.846  1.00  0.00    +0.055 A 
ATOM      9  C   UNL     1      -1.914  -1.333  -0.517  1.00  0.00    +0.035 A 
ATOM     10  C   UNL     1      -1.639   0.103  -0.348  1.00  0.00    +0.084 C 
ATOM     11  N   UNL     1      -2.574   1.006  -0.435  1.00  0.00    -0.176 NA
ATOM     12  N   UNL     1      -3.833   0.605  -0.764  1.00  0.00    -0.243 N 
ATOM     13  C   UNL     1      -4.236  -0.686  -1.011  1.00  0.00    +0.272 C 
ATOM     14  O   UNL     1      -5.382  -0.974  -1.332  1.00  0.00    -0.267 OA
ATOM     15  F   UNL     1      -2.833  -5.319  -0.830  1.00  0.00    -0.207 F 
ATOM     16  H   UNL     1       1.077  -2.618  -0.067  1.00  0.00    +0.161 HD
ATOM     17  H   UNL     1      -4.529   1.337  -0.876  1.00  0.00    +0.194 HD
ENDROOT
BRANCH   1  18
ATOM     18  C   UNL     1       0.110   1.796  -0.705  1.00  0.00    +0.138 A 
ATOM     19  N   UNL     1      -0.040   3.053  -0.178  1.00  0.00    -0.252 N 
ATOM     20  N   UNL     1       0.369   3.995  -1.047  1.00  0.00    -0.160 NA
ATOM     21  N   UNL     1       0.590   1.909  -1.931  1.00  0.00    -0.219 NA
ATOM     22  C   UNL     1       0.721   3.257  -2.098  1.00  0.00    +0.246 A 
ATOM     23  C   UNL     1      -0.526   3.431   1.124  1.00  0.00    +0.176 C 
ENDBRANCH   1  18
BRANCH   2  24
ATOM     24  C   UNL     1       2.175  -0.291   0.291  1.00  0.00    -0.024 A 
ATOM     25  C   UNL     1       3.218   0.210  -0.507  1.00  0.00    +0.009 A 
ATOM     26  C   UNL     1       2.410  -0.492   1.664  1.00  0.00    +0.009 A 
ATOM     27  C   UNL     1       4.465   0.496   0.052  1.00  0.00    +0.039 A 
ATOM     28  C   UNL     1       3.658  -0.207   2.219  1.00  0.00    +0.039 A 
ATOM     29  C   UNL     1       4.674   0.284   1.409  1.00  0.00    +0.123 A 
ATOM     30  F   UNL     1       5.870   0.558   1.944  1.00  0.00    -0.207 F 
ENDBRANCH   2  24
TORSDOF 2
