REMARK SMILES Cn1ncnc1[C@H]1c2n[nH]c(=O)c3cc(F)cc(c23)N[C@@H]1c1ccc(F)cc1
REMARK SMILES IDX 7 1 21 2 20 3 18 4 17 5 15 6 14 7 13 8 19 9 8 10 9 11 10 12
REMARK SMILES IDX 11 13 12 14 16 15 6 18 2 19 3 20 5 21 4 22 1 23 22 24 23 25
REMARK SMILES IDX 28 26 24 27 27 28 25 29 26 30
REMARK H PARENT 20 16 10 17
ROOT
ATOM      1  C   UNL     1       0.094  -1.276  -0.039  1.00  0.00    +0.136 C 
ATOM      2  C   UNL     1       1.148  -0.550   0.828  1.00  0.00    +0.126 C 
ATOM      3  N   UNL     1       0.511   0.381   1.794  1.00  0.00    -0.376 N 
ATOM      4  C   UNL     1      -0.427   1.264   1.223  1.00  0.00    +0.048 A 
ATOM      5  C   UNL     1      -0.792   2.415   1.926  1.00  0.00    +0.065 A 
ATOM      6  C   UNL     1      -1.737   3.292   1.395  1.00  0.00    +0.126 A 
ATOM      7  C   UNL     1      -2.352   3.039   0.174  1.00  0.00    +0.054 A 
ATOM      8  C   UNL     1      -2.023   1.870  -0.510  1.00  0.00    +0.055 A 
ATOM      9  C   UNL     1      -1.092   0.988   0.024  1.00  0.00    +0.035 A 
ATOM     10  C   UNL     1      -0.831  -0.265  -0.694  1.00  0.00    +0.084 C 
ATOM     11  N   UNL     1      -1.371  -0.555  -1.843  1.00  0.00    -0.176 NA
ATOM     12  N   UNL     1      -2.234   0.355  -2.382  1.00  0.00    -0.243 N 
ATOM     13  C   UNL     1      -2.637   1.538  -1.803  1.00  0.00    +0.272 C 
ATOM     14  O   UNL     1      -3.454   2.284  -2.329  1.00  0.00    -0.267 OA
ATOM     15  F   UNL     1      -2.057   4.402   2.073  1.00  0.00    -0.207 F 
ATOM     16  H   UNL     1       0.021  -0.189   2.498  1.00  0.00    +0.161 HD
ATOM     17  H   UNL     1      -2.657   0.115  -3.274  1.00  0.00    +0.194 HD
ENDROOT
BRANCH   1  18
ATOM     18  C   UNL     1      -0.756  -2.213   0.777  1.00  0.00    +0.138 A 
ATOM     19  N   UNL     1      -1.507  -3.242   0.265  1.00  0.00    -0.252 N 
ATOM     20  N   UNL     1      -2.162  -3.892   1.244  1.00  0.00    -0.160 NA
ATOM     21  N   UNL     1      -0.917  -2.187   2.088  1.00  0.00    -0.219 NA
ATOM     22  C   UNL     1      -1.776  -3.220   2.326  1.00  0.00    +0.246 A 
ATOM     23  C   UNL     1      -1.678  -3.665  -1.102  1.00  0.00    +0.176 C 
ENDBRANCH   1  18
BRANCH   2  24
ATOM     24  C   UNL     1       2.278   0.183   0.093  1.00  0.00    -0.024 A 
ATOM     25  C   UNL     1       3.290   0.791   0.867  1.00  0.00    +0.009 A 
ATOM     26  C   UNL     1       2.377   0.272  -1.307  1.00  0.00    +0.009 A 
ATOM     27  C   UNL     1       4.355   1.466   0.267  1.00  0.00    +0.039 A 
ATOM     28  C   UNL     1       3.444   0.949  -1.906  1.00  0.00    +0.039 A 
ATOM     29  C   UNL     1       4.421   1.539  -1.116  1.00  0.00    +0.123 A 
ATOM     30  F   UNL     1       5.440   2.184  -1.697  1.00  0.00    -0.207 F 
ENDBRANCH   2  24
TORSDOF 2
