REMARK SMILES Cn1ncnc1[C@H]1c2n[nH]c(=O)c3cc(F)cc(c23)N[C@@H]1c1ccc(F)cc1
REMARK SMILES IDX 9 1 20 2 11 3 7 4 21 5 18 6 17 7 14 8 8 9 19 10 15 11 16 12
REMARK SMILES IDX 13 13 12 14 10 15 6 18 5 19 2 20 4 21 3 22 1 23 22 24 23 25
REMARK SMILES IDX 28 26 24 27 27 28 25 29 26 30
REMARK H PARENT 20 16 10 17
ROOT
ATOM      1  N1  2YQ A2011       0.387  63.915 190.438  1.00  0.00    -0.176 NA
ATOM      2  N3  2YQ A2011       1.137  62.399 186.571  1.00  0.00    -0.376 N 
ATOM      3  C4  2YQ A2011      -1.477  62.318 190.557  1.00  0.00    +0.272 A 
ATOM      4  C5  2YQ A2011       1.604  64.107 188.568  1.00  0.00    +0.136 C 
ATOM      5  C6  2YQ A2011       1.863  63.571 187.094  1.00  0.00    +0.126 C 
ATOM      6  C7  2YQ A2011       0.055  61.938 187.258  1.00  0.00    +0.048 A 
ATOM      7  C8  2YQ A2011      -0.773  60.975 186.668  1.00  0.00    +0.065 A 
ATOM      8  C10 2YQ A2011      -2.045  60.911 188.702  1.00  0.00    +0.054 A 
ATOM      9  C3  2YQ A2011       0.644  63.415 189.192  1.00  0.00    +0.084 A 
ATOM     10  C2  2YQ A2011      -0.156  62.407 188.542  1.00  0.00    +0.035 A 
ATOM     11  C9  2YQ A2011      -1.842  60.453 187.413  1.00  0.00    +0.126 A 
ATOM     12  F1  2YQ A2011      -2.797  59.442 186.909  1.00  0.00    -0.207 F 
ATOM     13  C1  2YQ A2011      -1.224  61.876 189.250  1.00  0.00    +0.055 A 
ATOM     14  O   2YQ A2011      -2.387  61.803 191.207  1.00  0.00    -0.267 OA
ATOM     15  N2  2YQ A2011      -0.699  63.344 191.144  1.00  0.00    -0.243 N 
ATOM     16  H   UNL     1       1.442  61.938 185.702  1.00  0.00    +0.161 HD
ATOM     17  H   UNL     1      -0.925  63.678 192.092  1.00  0.00    +0.194 HD
ENDROOT
BRANCH   4  18
ATOM     18  C17 2YQ A2011       1.069  65.575 188.442  1.00  0.00    +0.138 A 
ATOM     19  N6  2YQ A2011      -0.245  65.984 188.652  1.00  0.00    -0.219 NA
ATOM     20  N4  2YQ A2011       1.689  66.760 188.084  1.00  0.00    -0.252 N 
ATOM     21  C18 2YQ A2011      -0.457  67.318 188.451  1.00  0.00    +0.246 A 
ATOM     22  N5  2YQ A2011       0.720  67.820 188.120  1.00  0.00    -0.160 NA
ATOM     23  C19 2YQ A2011       3.059  67.214 187.716  1.00  0.00    +0.176 C 
ENDBRANCH   4  18
BRANCH   5  24
ATOM     24  C11 2YQ A2011       3.172  63.805 186.900  1.00  0.00    -0.024 A 
ATOM     25  C12 2YQ A2011       3.457  64.417 185.689  1.00  0.00    +0.009 A 
ATOM     26  C16 2YQ A2011       4.113  63.751 187.916  1.00  0.00    +0.009 A 
ATOM     27  C13 2YQ A2011       4.717  64.891 185.445  1.00  0.00    +0.039 A 
ATOM     28  C15 2YQ A2011       5.377  64.214 187.655  1.00  0.00    +0.039 A 
ATOM     29  C14 2YQ A2011       5.688  64.788 186.415  1.00  0.00    +0.123 A 
ATOM     30  F2  2YQ A2011       7.425  65.400 185.985  1.00  0.00    -0.207 F 
ENDBRANCH   5  24
TORSDOF 2
