REMARK SMILES C#Cc1cccc(Nc2ncnc3cc(OCCOC)c(OCCOC)cc23)c1
REMARK SMILES IDX 15 1 14 2 13 3 12 4 11 5 10 6 9 7 28 8 27 9 21 10 16 11
REMARK SMILES IDX 17 12 18 13 19 14 20 15 22 16 23 17 24 18 25 19 26 20 8 21
REMARK SMILES IDX 7 23 6 24 29 25 5 26 3 27 4 28 2 29 1 30
REMARK H PARENT 8 22
ROOT
ATOM      1  C   UNL     1      -2.139  -0.620   0.322  1.00  0.00    +0.163 A 
ATOM      2  C   UNL     1      -1.759  -1.966   0.352  1.00  0.00    +0.079 A 
ATOM      3  C   UNL     1      -0.425  -2.355   0.337  1.00  0.00    +0.080 A 
ATOM      4  N   UNL     1      -0.146  -3.661   0.376  1.00  0.00    -0.236 NA
ATOM      5  C   UNL     1       1.146  -4.001   0.365  1.00  0.00    +0.224 A 
ATOM      6  N   UNL     1       2.181  -3.160   0.304  1.00  0.00    -0.219 NA
ATOM      7  C   UNL     1       1.896  -1.847   0.248  1.00  0.00    +0.141 A 
ATOM      8  C   UNL     1       0.568  -1.371   0.280  1.00  0.00    +0.047 A 
ATOM      9  C   UNL     1       0.192  -0.003   0.269  1.00  0.00    +0.064 A 
ATOM     10  C   UNL     1      -1.151   0.374   0.296  1.00  0.00    +0.162 A 
ENDROOT
BRANCH   1  11
ATOM     11  O   UNL     1      -3.438  -0.179   0.342  1.00  0.00    -0.487 OA
BRANCH  11  12
ATOM     12  C   UNL     1      -4.474  -1.148   0.194  1.00  0.00    +0.258 C 
BRANCH  12  13
ATOM     13  C   UNL     1      -5.813  -0.413   0.127  1.00  0.00    +0.201 C 
BRANCH  13  14
ATOM     14  O   UNL     1      -6.916  -1.314   0.022  1.00  0.00    -0.381 OA
ATOM     15  C   UNL     1      -7.152  -1.748  -1.311  1.00  0.00    +0.195 C 
ENDBRANCH  13  14
ENDBRANCH  12  13
ENDBRANCH  11  12
ENDBRANCH   1  11
BRANCH  10  16
ATOM     16  O   UNL     1      -1.591   1.672   0.270  1.00  0.00    -0.487 OA
BRANCH  16  17
ATOM     17  C   UNL     1      -0.652   2.697   0.610  1.00  0.00    +0.258 C 
BRANCH  17  18
ATOM     18  C   UNL     1      -1.400   4.026   0.722  1.00  0.00    +0.201 C 
BRANCH  18  19
ATOM     19  O   UNL     1      -1.677   4.528  -0.590  1.00  0.00    -0.381 OA
ATOM     20  C   UNL     1      -2.455   5.716  -0.542  1.00  0.00    +0.195 C 
ENDBRANCH  18  19
ENDBRANCH  17  18
ENDBRANCH  16  17
ENDBRANCH  10  16
BRANCH   7  21
ATOM     21  N   UNL     1       2.957  -0.907   0.132  1.00  0.00    -0.340 N 
ATOM     22  H   UNL     1       2.793  -0.338  -0.693  1.00  0.00    +0.168 HD
BRANCH  21  23
ATOM     23  C   UNL     1       4.339  -1.111   0.347  1.00  0.00    +0.041 A 
ATOM     24  C   UNL     1       4.833  -2.053   1.258  1.00  0.00    +0.026 A 
ATOM     25  C   UNL     1       5.259  -0.249  -0.273  1.00  0.00    +0.043 A 
ATOM     26  C   UNL     1       6.205  -2.177   1.497  1.00  0.00    +0.003 A 
ATOM     27  C   UNL     1       6.633  -0.369  -0.036  1.00  0.00    +0.026 A 
ATOM     28  C   UNL     1       7.106  -1.339   0.845  1.00  0.00    +0.017 A 
ATOM     29  C   UNL     1       7.551   0.510  -0.695  1.00  0.00    -0.070 C 
ATOM     30  C   UNL     1       8.322   1.247  -1.247  1.00  0.00    +0.010 C 
ENDBRANCH  21  23
ENDBRANCH   7  21
TORSDOF 10
