REMARK SMILES Cc1c(-c2ccccc2F)c(=O)n(-c2ccccc2NC(=O)C2CC2)c(=O)n1-c1ccc(I)cc1F
REMARK SMILES IDX 1 1 2 2 3 3 11 4 12 5 13 6 26 7 27 8 28 9 4 10 9 11 5 12
REMARK SMILES IDX 8 13 6 14 7 15 10 16 29 17 30 18 35 19 31 20 34 21 32 22
REMARK SMILES IDX 36 23 33 24 14 25 15 26 19 27 16 28 18 29 17 30 20 31 21 32
REMARK SMILES IDX 22 33 23 35 24 36 25 37
REMARK H PARENT 20 34
ROOT
ATOM      1  C   UNL     1      -2.908  -0.031   1.766  1.00  0.00    +0.066 C 
ATOM      2  C   UNL     1      -1.845  -0.148   0.684  1.00  0.00    +0.038 C 
ATOM      3  C   UNL     1      -1.059   0.894   0.359  1.00  0.00    +0.070 C 
ATOM      4  C   UNL     1       0.014   0.722  -0.656  1.00  0.00    +0.269 C 
ATOM      5  O   UNL     1       0.703   1.707  -0.934  1.00  0.00    -0.268 OA
ATOM      6  N   UNL     1       0.195  -0.540  -1.194  1.00  0.00    -0.225 N 
ATOM      7  C   UNL     1      -0.584  -1.649  -0.814  1.00  0.00    +0.340 C 
ATOM      8  O   UNL     1      -0.363  -2.790  -1.236  1.00  0.00    -0.247 OA
ATOM      9  N   UNL     1      -1.639  -1.401   0.094  1.00  0.00    -0.263 N 
ENDROOT
BRANCH   3  10
ATOM     10  C   UNL     1      -1.229   2.232   0.959  1.00  0.00    +0.025 A 
ATOM     11  C   UNL     1      -2.163   3.130   0.434  1.00  0.00    +0.131 A 
ATOM     12  C   UNL     1      -0.450   2.626   2.056  1.00  0.00    +0.012 A 
ATOM     13  C   UNL     1      -2.331   4.397   0.986  1.00  0.00    +0.040 A 
ATOM     14  C   UNL     1      -0.615   3.898   2.613  1.00  0.00    +0.001 A 
ATOM     15  C   UNL     1      -1.555   4.782   2.078  1.00  0.00    +0.003 A 
ATOM     16  F   UNL     1      -2.923   2.775  -0.613  1.00  0.00    -0.206 F 
ENDBRANCH   3  10
BRANCH   9  17
ATOM     17  C   UNL     1      -2.517  -2.516   0.350  1.00  0.00    +0.086 A 
ATOM     18  C   UNL     1      -2.012  -3.711   0.882  1.00  0.00    +0.031 A 
ATOM     19  C   UNL     1      -3.885  -2.444   0.051  1.00  0.00    +0.148 A 
ATOM     20  C   UNL     1      -2.864  -4.792   1.131  1.00  0.00    +0.017 A 
ATOM     21  C   UNL     1      -4.741  -3.515   0.295  1.00  0.00    +0.056 A 
ATOM     22  C   UNL     1      -4.224  -4.688   0.840  1.00  0.00    +0.016 A 
ATOM     23  F   UNL     1      -4.396  -1.341  -0.518  1.00  0.00    -0.205 F 
ATOM     24  I   UNL     1      -5.486  -6.296   1.210  1.00  0.00    -0.044 I 
ENDBRANCH   9  17
BRANCH   6  25
ATOM     25  C   UNL     1       1.204  -0.749  -2.229  1.00  0.00    +0.077 A 
ATOM     26  C   UNL     1       0.827  -1.503  -3.364  1.00  0.00    +0.029 A 
ATOM     27  C   UNL     1       2.553  -0.297  -2.149  1.00  0.00    +0.065 A 
ATOM     28  C   UNL     1       1.735  -1.832  -4.370  1.00  0.00    +0.002 A 
ATOM     29  C   UNL     1       3.454  -0.657  -3.167  1.00  0.00    +0.028 A 
ATOM     30  C   UNL     1       3.051  -1.416  -4.266  1.00  0.00    +0.002 A 
BRANCH  27  31
ATOM     31  N   UNL     1       2.992   0.504  -1.069  1.00  0.00    -0.324 N 
ATOM     32  C   UNL     1       4.273   0.870  -0.732  1.00  0.00    +0.227 C 
ATOM     33  O   UNL     1       5.326   0.468  -1.201  1.00  0.00    -0.274 OA
ATOM     34  H   UNL     1       2.260   1.003  -0.577  1.00  0.00    +0.170 HD
BRANCH  32  35
ATOM     35  C   UNL     1       4.308   1.897   0.349  1.00  0.00    +0.079 C 
ATOM     36  C   UNL     1       3.620   1.665   1.676  1.00  0.00    +0.014 C 
ATOM     37  C   UNL     1       5.117   1.641   1.599  1.00  0.00    +0.014 C 
ENDBRANCH  32  35
ENDBRANCH  27  31
ENDBRANCH   6  25
TORSDOF 5
