REMARK SMILES O=C(c1cc(Cc2n[nH]c(=O)c3ccccc23)ccc1F)N1CCN(C(=O)C2CC2)CC1
REMARK SMILES IDX 3 1 4 2 5 3 18 4 19 5 20 6 21 7 2 8 1 9 22 10 23 11 32 12
REMARK SMILES IDX 24 13 31 14 25 15 26 16 27 17 28 18 29 19 30 20 6 21 7 22
REMARK SMILES IDX 8 23 17 24 9 25 16 26 12 27 10 28 15 29 13 30 11 31 14 32
REMARK H PARENT 9 33
ROOT
ATOM      1  C   UNL     1       0.336   0.203   0.439  1.00  0.00    +0.076 A 
ATOM      2  C   UNL     1       1.250  -0.549  -0.312  1.00  0.00    +0.021 A 
ATOM      3  C   UNL     1       2.218   0.091  -1.100  1.00  0.00    -0.041 A 
ATOM      4  C   UNL     1       2.239   1.494  -1.141  1.00  0.00    +0.007 A 
ATOM      5  C   UNL     1       1.341   2.241  -0.374  1.00  0.00    +0.040 A 
ATOM      6  C   UNL     1       0.403   1.592   0.423  1.00  0.00    +0.135 A 
ATOM      7  F   UNL     1      -0.427   2.334   1.170  1.00  0.00    -0.206 F 
ENDROOT
BRANCH   1   8
ATOM      8  C   UNL     1      -0.622  -0.516   1.298  1.00  0.00    +0.256 C 
ATOM      9  O   UNL     1      -0.160  -1.358   2.067  1.00  0.00    -0.269 OA
ATOM     10  N   UNL     1      -1.983  -0.258   1.187  1.00  0.00    -0.335 N 
ATOM     11  C   UNL     1      -2.885  -0.923   2.133  1.00  0.00    +0.141 C 
ATOM     12  C   UNL     1      -2.613   0.538   0.125  1.00  0.00    +0.141 C 
ATOM     13  C   UNL     1      -4.260  -0.252   2.221  1.00  0.00    +0.141 C 
ATOM     14  C   UNL     1      -4.012   0.026  -0.249  1.00  0.00    +0.141 C 
ATOM     15  N   UNL     1      -4.899  -0.116   0.909  1.00  0.00    -0.339 N 
ATOM     16  C   UNL     1      -6.282  -0.172   0.832  1.00  0.00    +0.225 C 
ATOM     17  O   UNL     1      -7.012  -0.285   1.810  1.00  0.00    -0.275 OA
BRANCH  16  18
ATOM     18  C   UNL     1      -6.884  -0.099  -0.530  1.00  0.00    +0.079 C 
ATOM     19  C   UNL     1      -7.167   1.246  -1.161  1.00  0.00    +0.014 C 
ATOM     20  C   UNL     1      -8.307   0.387  -0.708  1.00  0.00    +0.014 C 
ENDBRANCH  16  18
ENDBRANCH   1   8
BRANCH   3  21
ATOM     21  C   UNL     1       3.199  -0.726  -1.912  1.00  0.00    +0.094 C 
BRANCH  21  22
ATOM     22  C   UNL     1       4.648  -0.296  -1.724  1.00  0.00    +0.073 C 
ATOM     23  N   UNL     1       5.177   0.423  -2.671  1.00  0.00    -0.177 NA
ATOM     24  C   UNL     1       5.390  -0.689  -0.497  1.00  0.00    +0.011 A 
ATOM     25  N   UNL     1       6.466   0.831  -2.530  1.00  0.00    -0.243 N 
ATOM     26  C   UNL     1       4.836  -1.461   0.531  1.00  0.00    +0.011 A 
ATOM     27  C   UNL     1       6.708  -0.250  -0.384  1.00  0.00    +0.050 A 
ATOM     28  C   UNL     1       7.290   0.561  -1.465  1.00  0.00    +0.272 C 
ATOM     29  C   UNL     1       5.600  -1.782   1.657  1.00  0.00    +0.001 A 
ATOM     30  C   UNL     1       7.475  -0.572   0.742  1.00  0.00    +0.014 A 
ATOM     31  O   UNL     1       8.446   0.968  -1.411  1.00  0.00    -0.267 OA
ATOM     32  C   UNL     1       6.918  -1.339   1.763  1.00  0.00    +0.001 A 
ATOM     33  H   UNL     1       6.854   1.386  -3.287  1.00  0.00    +0.194 HD
ENDBRANCH  21  22
ENDBRANCH   3  21
TORSDOF 4
