REMARK SMILES CCN1CCN(Cc2ccc(Nc3ncc(F)c(Nc4ccc(C#N)c(C(C)C)n4)n3)nc2)CC1
REMARK SMILES IDX 12 1 11 3 8 4 9 5 33 6 10 7 32 8 7 9 6 10 3 11 4 12 35 13
REMARK SMILES IDX 5 14 34 15 2 16 1 17 13 18 14 19 31 20 15 21 18 22 16 23
REMARK SMILES IDX 17 24 19 25 20 27 21 28 30 29 22 30 26 31 23 32 24 33 25 34
REMARK SMILES IDX 27 35 28 36 29 37
REMARK H PARENT 12 2 19 26
ROOT
ATOM      1  N   UNL     1       0.179  -2.482  -2.845  1.00  0.00    -0.309 N 
ATOM      2  H   UNL     1       0.551  -3.328  -3.334  1.00  0.00    +0.171 HD
ENDROOT
BRANCH   1   3
ATOM      3  C   UNL     1       0.837  -2.034  -1.648  1.00  0.00    +0.132 A 
ATOM      4  C   UNL     1       2.207  -1.112   0.601  1.00  0.00    -0.015 A 
ATOM      5  C   UNL     1       2.407  -2.423   0.143  1.00  0.00    +0.010 A 
ATOM      6  C   UNL     1       1.284  -0.300  -0.074  1.00  0.00    +0.118 A 
ATOM      7  C   UNL     1       1.734  -2.882  -0.990  1.00  0.00    +0.047 A 
ATOM      8  N   UNL     1       0.636  -0.773  -1.172  1.00  0.00    -0.239 NA
BRANCH   4   9
ATOM      9  C   UNL     1       2.968  -0.586   1.802  1.00  0.00    +0.121 C 
BRANCH   9  10
ATOM     10  N   UNL     1       4.297  -0.020   1.473  1.00  0.00    -0.296 NA
ATOM     11  N   UNL     1       6.713   1.043   0.924  1.00  0.00    -0.301 NA
ATOM     12  C   UNL     1       5.610   1.649   0.150  1.00  0.00    +0.100 C 
ATOM     13  C   UNL     1       6.659  -0.442   0.890  1.00  0.00    +0.100 C 
ATOM     14  C   UNL     1       4.221   1.223   0.678  1.00  0.00    +0.100 C 
ATOM     15  C   UNL     1       5.221  -0.996   0.870  1.00  0.00    +0.100 C 
BRANCH  11  16
ATOM     16  C   UNL     1       6.806   1.583   2.302  1.00  0.00    +0.081 C 
ATOM     17  C   UNL     1       8.271   1.732   2.702  1.00  0.00    +0.021 C 
ENDBRANCH  11  16
ENDBRANCH   9  10
ENDBRANCH   4   9
ENDBRANCH   1   3
BRANCH   1  18
ATOM     18  C   UNL     1      -0.933  -1.805  -3.450  1.00  0.00    +0.230 A 
ATOM     19  N   UNL     1      -1.266  -2.087  -4.738  1.00  0.00    -0.218 NA
ATOM     20  N   UNL     1      -1.690  -0.925  -2.735  1.00  0.00    -0.192 NA
ATOM     21  C   UNL     1      -2.326  -1.486  -5.335  1.00  0.00    +0.158 A 
ATOM     22  C   UNL     1      -2.770  -0.311  -3.289  1.00  0.00    +0.173 A 
ATOM     23  C   UNL     1      -3.105  -0.577  -4.618  1.00  0.00    +0.184 A 
ATOM     24  F   UNL     1      -4.180   0.013  -5.199  1.00  0.00    -0.201 F 
BRANCH  22  25
ATOM     25  N   UNL     1      -3.559   0.603  -2.518  1.00  0.00    -0.322 N 
ATOM     26  H   UNL     1      -3.838   1.499  -2.982  1.00  0.00    +0.170 HD
BRANCH  25  27
ATOM     27  C   UNL     1      -4.273   0.233  -1.324  1.00  0.00    +0.131 A 
ATOM     28  C   UNL     1      -4.101  -1.013  -0.700  1.00  0.00    +0.048 A 
ATOM     29  N   UNL     1      -5.197   1.097  -0.823  1.00  0.00    -0.234 NA
ATOM     30  C   UNL     1      -4.867  -1.333   0.419  1.00  0.00    +0.025 A 
ATOM     31  C   UNL     1      -5.967   0.824   0.270  1.00  0.00    +0.063 A 
ATOM     32  C   UNL     1      -5.807  -0.426   0.918  1.00  0.00    +0.074 A 
ATOM     33  C   UNL     1      -6.612  -0.829   2.046  1.00  0.00    +0.101 C 
ATOM     34  N   UNL     1      -7.262  -1.162   2.946  1.00  0.00    -0.192 NA
BRANCH  31  35
ATOM     35  C   UNL     1      -6.980   1.879   0.689  1.00  0.00    +0.033 C 
ATOM     36  C   UNL     1      -6.766   2.377   2.125  1.00  0.00    +0.014 C 
ATOM     37  C   UNL     1      -8.421   1.405   0.460  1.00  0.00    +0.014 C 
ENDBRANCH  31  35
ENDBRANCH  25  27
ENDBRANCH  22  25
ENDBRANCH   1  18
TORSDOF 8
