REMARK SMILES CCN1CCN(Cc2ccc(Nc3ncc(F)c(-c4cc(F)c5nc(C)n(C(C)C)c5c4)n3)nc2)CC1
REMARK SMILES IDX 8 1 35 2 34 3 11 4 10 5 9 6 7 7 6 8 3 9 4 10 37 11 5 12
REMARK SMILES IDX 36 13 2 14 1 15 12 16 13 18 14 19 33 20 15 21 18 22 16 23
REMARK SMILES IDX 17 24 19 25 32 26 20 27 31 28 21 29 23 30 27 31 24 32 25 33
REMARK SMILES IDX 22 34 26 35 28 36 29 37 30 38
REMARK H PARENT 12 17
ROOT
ATOM      1  C   UNL     1       4.396  -1.792   0.405  1.00  0.00    -0.015 A 
ATOM      2  C   UNL     1       3.830  -1.391  -0.797  1.00  0.00    +0.118 A 
ATOM      3  N   UNL     1       2.500  -1.222  -0.997  1.00  0.00    -0.239 NA
ATOM      4  C   UNL     1       1.661  -1.454   0.037  1.00  0.00    +0.132 A 
ATOM      5  C   UNL     1       2.146  -1.858   1.274  1.00  0.00    +0.047 A 
ATOM      6  C   UNL     1       3.520  -2.031   1.460  1.00  0.00    +0.010 A 
ENDROOT
BRANCH   1   7
ATOM      7  C   UNL     1       5.884  -1.978   0.544  1.00  0.00    +0.121 C 
BRANCH   7   8
ATOM      8  N   UNL     1       6.650  -0.765   0.234  1.00  0.00    -0.296 NA
ATOM      9  N   UNL     1       8.377   1.527   0.112  1.00  0.00    -0.301 NA
ATOM     10  C   UNL     1       8.908   0.205  -0.298  1.00  0.00    +0.100 C 
ATOM     11  C   UNL     1       7.550   1.357   1.322  1.00  0.00    +0.100 C 
ATOM     12  C   UNL     1       8.091  -1.039   0.152  1.00  0.00    +0.100 C 
ATOM     13  C   UNL     1       6.397   0.326   1.200  1.00  0.00    +0.100 C 
BRANCH   9  14
ATOM     14  C   UNL     1       7.596   2.163  -0.963  1.00  0.00    +0.081 C 
ATOM     15  C   UNL     1       8.503   2.784  -2.022  1.00  0.00    +0.021 C 
ENDBRANCH   9  14
ENDBRANCH   7   8
ENDBRANCH   1   7
BRANCH   4  16
ATOM     16  N   UNL     1       0.323  -1.257  -0.251  1.00  0.00    -0.309 N 
ATOM     17  H   UNL     1       0.177  -0.965  -1.205  1.00  0.00    +0.171 HD
BRANCH  16  18
ATOM     18  C   UNL     1      -0.855  -1.353   0.462  1.00  0.00    +0.229 A 
ATOM     19  N   UNL     1      -0.872  -1.711   1.755  1.00  0.00    -0.218 NA
ATOM     20  N   UNL     1      -1.973  -1.062  -0.229  1.00  0.00    -0.210 NA
ATOM     21  C   UNL     1      -2.074  -1.777   2.362  1.00  0.00    +0.156 A 
ATOM     22  C   UNL     1      -3.173  -1.126   0.405  1.00  0.00    +0.112 A 
ATOM     23  C   UNL     1      -3.258  -1.493   1.733  1.00  0.00    +0.167 A 
ATOM     24  F   UNL     1      -4.417  -1.591   2.396  1.00  0.00    -0.203 F 
BRANCH  22  25
ATOM     25  C   UNL     1      -4.346  -0.787  -0.431  1.00  0.00    +0.008 A 
ATOM     26  C   UNL     1      -5.483  -0.144   0.110  1.00  0.00    +0.039 A 
ATOM     27  C   UNL     1      -4.343  -1.090  -1.804  1.00  0.00    +0.052 A 
ATOM     28  C   UNL     1      -6.574   0.155  -0.728  1.00  0.00    +0.072 A 
ATOM     29  C   UNL     1      -5.431  -0.786  -2.627  1.00  0.00    +0.151 A 
ATOM     30  C   UNL     1      -6.563  -0.159  -2.086  1.00  0.00    +0.124 A 
ATOM     31  N   UNL     1      -7.803   0.755  -0.524  1.00  0.00    -0.326 N 
ATOM     32  N   UNL     1      -7.734   0.230  -2.684  1.00  0.00    -0.230 NA
ATOM     33  C   UNL     1      -8.467   0.776  -1.737  1.00  0.00    +0.107 A 
ATOM     34  F   UNL     1      -5.373  -1.106  -3.928  1.00  0.00    -0.205 F 
ATOM     35  C   UNL     1      -9.825   1.341  -1.946  1.00  0.00    +0.088 C 
BRANCH  31  36
ATOM     36  C   UNL     1      -8.328   1.278   0.736  1.00  0.00    +0.083 C 
ATOM     37  C   UNL     1      -7.511   2.457   1.266  1.00  0.00    +0.031 C 
ATOM     38  C   UNL     1      -8.517   0.186   1.790  1.00  0.00    +0.031 C 
ENDBRANCH  31  36
ENDBRANCH  22  25
ENDBRANCH  16  18
ENDBRANCH   4  16
TORSDOF 7
