REMARK SMILES CCN1CCN(Cc2ccc(Nc3ncc(F)c(Nc4ccc5c(c4)n(C(C)C)c(=O)n5C)n3)cn2)CC1
REMARK SMILES IDX 12 1 11 3 8 4 9 5 36 6 10 7 35 8 7 9 6 10 3 11 4 12 38 13
REMARK SMILES IDX 5 14 37 15 2 16 1 17 13 18 14 19 34 20 15 21 18 22 16 23
REMARK SMILES IDX 17 24 19 25 20 27 21 28 25 29 22 30 24 31 23 32 26 33 32 34
REMARK SMILES IDX 30 35 31 36 33 37 27 38 28 39 29 40
REMARK H PARENT 12 2 19 26
ROOT
ATOM      1  N   UNL     1       0.575   1.350  -1.133  1.00  0.00    -0.323 N 
ATOM      2  H   UNL     1       0.474   1.414  -2.171  1.00  0.00    +0.170 HD
ENDROOT
BRANCH   1   3
ATOM      3  C   UNL     1       1.834   1.725  -0.546  1.00  0.00    +0.059 A 
ATOM      4  C   UNL     1       4.338   2.365   0.516  1.00  0.00    +0.055 A 
ATOM      5  C   UNL     1       3.929   2.940  -0.694  1.00  0.00    +0.027 A 
ATOM      6  N   UNL     1       3.506   1.502   1.158  1.00  0.00    -0.258 NA
ATOM      7  C   UNL     1       2.680   2.611  -1.225  1.00  0.00    +0.030 A 
ATOM      8  C   UNL     1       2.284   1.170   0.665  1.00  0.00    +0.137 A 
BRANCH   4   9
ATOM      9  C   UNL     1       5.694   2.679   1.105  1.00  0.00    +0.140 C 
BRANCH   9  10
ATOM     10  N   UNL     1       6.749   1.713   0.726  1.00  0.00    -0.295 NA
ATOM     11  N   UNL     1       8.669  -0.030   0.104  1.00  0.00    -0.301 NA
ATOM     12  C   UNL     1       7.519  -0.666   0.780  1.00  0.00    +0.100 C 
ATOM     13  C   UNL     1       8.206   0.791  -1.041  1.00  0.00    +0.100 C 
ATOM     14  C   UNL     1       6.612   0.410   1.412  1.00  0.00    +0.100 C 
ATOM     15  C   UNL     1       6.904   1.555  -0.731  1.00  0.00    +0.100 C 
BRANCH  11  16
ATOM     16  C   UNL     1       9.653  -1.035  -0.352  1.00  0.00    +0.081 C 
ATOM     17  C   UNL     1      10.572  -1.461   0.791  1.00  0.00    +0.021 C 
ENDBRANCH  11  16
ENDBRANCH   9  10
ENDBRANCH   4   9
ENDBRANCH   1   3
BRANCH   1  18
ATOM     18  C   UNL     1      -0.517   0.790  -0.392  1.00  0.00    +0.229 A 
ATOM     19  N   UNL     1      -0.775   1.201   0.879  1.00  0.00    -0.218 NA
ATOM     20  N   UNL     1      -1.313  -0.147  -0.972  1.00  0.00    -0.192 NA
ATOM     21  C   UNL     1      -1.806   0.673   1.590  1.00  0.00    +0.158 A 
ATOM     22  C   UNL     1      -2.362  -0.701  -0.306  1.00  0.00    +0.172 A 
ATOM     23  C   UNL     1      -2.620  -0.305   1.018  1.00  0.00    +0.184 A 
ATOM     24  F   UNL     1      -3.596  -0.888   1.759  1.00  0.00    -0.201 F 
BRANCH  22  25
ATOM     25  N   UNL     1      -3.104  -1.755  -0.938  1.00  0.00    -0.338 N 
ATOM     26  H   UNL     1      -2.584  -2.378  -1.599  1.00  0.00    +0.168 HD
BRANCH  25  27
ATOM     27  C   UNL     1      -4.507  -1.992  -0.752  1.00  0.00    +0.042 A 
ATOM     28  C   UNL     1      -5.000  -3.316  -0.845  1.00  0.00    +0.028 A 
ATOM     29  C   UNL     1      -5.406  -0.919  -0.550  1.00  0.00    +0.054 A 
ATOM     30  C   UNL     1      -6.370  -3.585  -0.703  1.00  0.00    +0.031 A 
ATOM     31  C   UNL     1      -6.769  -1.214  -0.419  1.00  0.00    +0.072 A 
ATOM     32  C   UNL     1      -7.225  -2.506  -0.488  1.00  0.00    +0.069 A 
ATOM     33  N   UNL     1      -7.820  -0.380  -0.215  1.00  0.00    -0.289 N 
ATOM     34  N   UNL     1      -8.561  -2.520  -0.325  1.00  0.00    -0.295 N 
ATOM     35  C   UNL     1      -8.891  -1.216  -0.164  1.00  0.00    +0.329 A 
ATOM     36  O   UNL     1     -10.077  -0.820   0.013  1.00  0.00    -0.248 OA
ATOM     37  C   UNL     1      -9.448  -3.680  -0.320  1.00  0.00    +0.155 C 
BRANCH  33  38
ATOM     38  C   UNL     1      -7.858   1.085  -0.059  1.00  0.00    +0.086 C 
ATOM     39  C   UNL     1      -7.394   1.794  -1.336  1.00  0.00    +0.031 C 
ATOM     40  C   UNL     1      -7.072   1.536   1.179  1.00  0.00    +0.031 C 
ENDBRANCH  33  38
ENDBRANCH  25  27
ENDBRANCH  22  25
ENDBRANCH   1  18
TORSDOF 8
