REMARK SMILES CN(C)C/C=C/C(=O)Nc1cc2c(Nc3ccc(F)c(Cl)c3)ncnc2cc1O[C@H]1CCOC1
REMARK SMILES IDX 7 1 8 2 9 3 6 5 5 6 4 7 2 8 1 9 3 10 10 11 11 12 28 13 12 14
REMARK SMILES IDX 27 15 13 16 26 17 23 18 25 19 24 20 29 21 30 22 31 23 34 24
REMARK SMILES IDX 32 25 33 26 14 27 15 29 16 30 22 31 17 32 20 33 18 34 21 35
REMARK SMILES IDX 19 36
REMARK H PARENT 9 4 14 28
ROOT
ATOM      1  C   UNL     1       1.540  -1.675  -0.397  1.00  0.00    +0.248 C 
ATOM      2  O   UNL     1       1.136  -2.456   0.510  1.00  0.00    -0.270 OA
ATOM      3  N   UNL     1       0.760  -0.517  -0.737  1.00  0.00    -0.319 N 
ATOM      4  H   UNL     1       1.023   0.087  -1.546  1.00  0.00    +0.170 HD
ENDROOT
BRANCH   1   5
ATOM      5  C   UNL     1       2.828  -1.981  -1.057  1.00  0.00    +0.068 C 
ATOM      6  C   UNL     1       3.490  -1.114  -1.834  1.00  0.00    -0.006 C 
BRANCH   6   7
ATOM      7  C   UNL     1       4.848  -1.440  -2.407  1.00  0.00    +0.111 C 
BRANCH   7   8
ATOM      8  N   UNL     1       5.957  -0.762  -1.698  1.00  0.00    -0.306 NA
ATOM      9  C   UNL     1       6.104  -1.237  -0.313  1.00  0.00    +0.105 C 
ATOM     10  C   UNL     1       5.841   0.706  -1.740  1.00  0.00    +0.105 C 
ENDBRANCH   7   8
ENDBRANCH   6   7
ENDBRANCH   1   5
BRANCH   3  11
ATOM     11  C   UNL     1      -0.256  -0.015   0.138  1.00  0.00    +0.085 A 
ATOM     12  C   UNL     1      -1.451  -0.727   0.307  1.00  0.00    +0.044 A 
ATOM     13  C   UNL     1      -0.058   1.209   0.794  1.00  0.00    +0.145 A 
ATOM     14  C   UNL     1      -2.468  -0.221   1.137  1.00  0.00    +0.045 A 
ATOM     15  C   UNL     1      -1.076   1.723   1.619  1.00  0.00    +0.077 A 
ATOM     16  C   UNL     1      -3.704  -0.877   1.322  1.00  0.00    +0.141 A 
ATOM     17  C   UNL     1      -2.273   1.018   1.786  1.00  0.00    +0.080 A 
ATOM     18  N   UNL     1      -4.647  -0.304   2.119  1.00  0.00    -0.219 NA
ATOM     19  N   UNL     1      -3.255   1.537   2.567  1.00  0.00    -0.236 NA
ATOM     20  C   UNL     1      -4.432   0.885   2.735  1.00  0.00    +0.224 A 
BRANCH  13  21
ATOM     21  O   UNL     1       1.170   1.868   0.612  1.00  0.00    -0.486 OA
BRANCH  21  22
ATOM     22  C   UNL     1       1.550   3.098   1.233  1.00  0.00    +0.201 C 
ATOM     23  C   UNL     1       3.016   3.334   1.020  1.00  0.00    +0.076 C 
ATOM     24  C   UNL     1       0.904   4.286   0.526  1.00  0.00    +0.205 C 
ATOM     25  C   UNL     1       3.045   4.178  -0.232  1.00  0.00    +0.164 C 
ATOM     26  O   UNL     1       1.852   4.920  -0.306  1.00  0.00    -0.377 OA
ENDBRANCH  21  22
ENDBRANCH  13  21
BRANCH  16  27
ATOM     27  N   UNL     1      -3.981  -2.147   0.708  1.00  0.00    -0.340 N 
ATOM     28  H   UNL     1      -3.229  -2.874   0.708  1.00  0.00    +0.168 HD
BRANCH  27  29
ATOM     29  C   UNL     1      -5.276  -2.510   0.195  1.00  0.00    +0.041 A 
ATOM     30  C   UNL     1      -5.613  -3.867   0.063  1.00  0.00    +0.029 A 
ATOM     31  C   UNL     1      -6.196  -1.533  -0.231  1.00  0.00    +0.049 A 
ATOM     32  C   UNL     1      -6.856  -4.241  -0.457  1.00  0.00    +0.043 A 
ATOM     33  C   UNL     1      -7.441  -1.909  -0.748  1.00  0.00    +0.078 A 
ATOM     34  C   UNL     1      -7.773  -3.264  -0.857  1.00  0.00    +0.141 A 
ATOM     35 Cl   UNL     1      -8.577  -0.675  -1.266  1.00  0.00    -0.081 Cl
ATOM     36  F   UNL     1      -8.975  -3.638  -1.360  1.00  0.00    -0.205 F 
ENDBRANCH  27  29
ENDBRANCH  16  27
ENDBRANCH   3  11
TORSDOF 8
