REMARK SMILES C[C@H](NC(=O)Nc1csc(-c2cc(C(C)(C)C(N)=O)nc(N3CCCC3)n2)n1)c1ccccc1
REMARK SMILES IDX 13 1 20 2 21 3 27 4 11 5 12 6 14 7 15 8 16 9 17 10 19 11
REMARK SMILES IDX 18 12 22 15 23 16 26 17 24 18 25 19 10 20 28 21 9 22 7 23
REMARK SMILES IDX 8 24 6 25 4 26 5 27 3 28 2 31 1 32 29 33 30 34 34 35 31 36
REMARK SMILES IDX 33 37 32 38
REMARK H PARENT 18 13 18 14 6 29 3 30
ROOT
ATOM      1  C   UNL     1      -4.085  -1.484   0.548  1.00  0.00    +0.062 A 
ATOM      2  N   UNL     1      -4.402  -0.184   0.290  1.00  0.00    -0.217 NA
ATOM      3  C   UNL     1      -3.471   0.721  -0.110  1.00  0.00    +0.226 A 
ATOM      4  N   UNL     1      -2.183   0.326  -0.283  1.00  0.00    -0.210 NA
ATOM      5  C   UNL     1      -1.801  -0.960  -0.068  1.00  0.00    +0.105 A 
ATOM      6  C   UNL     1      -2.755  -1.901   0.348  1.00  0.00    +0.056 A 
ENDROOT
BRANCH   1   7
ATOM      7  C   UNL     1      -5.218  -2.442   0.941  1.00  0.00    +0.086 C 
ATOM      8  C   UNL     1      -6.027  -2.736  -0.341  1.00  0.00    +0.028 C 
ATOM      9  C   UNL     1      -4.704  -3.775   1.528  1.00  0.00    +0.028 C 
BRANCH   7  10
ATOM     10  C   UNL     1      -6.101  -1.791   2.004  1.00  0.00    +0.229 C 
ATOM     11  O   UNL     1      -5.616  -0.919   2.776  1.00  0.00    -0.274 OA
ATOM     12  N   UNL     1      -7.451  -2.216   2.218  1.00  0.00    -0.369 N 
ATOM     13  H   UNL     1      -7.863  -3.027   1.709  1.00  0.00    +0.159 HD
ATOM     14  H   UNL     1      -8.036  -1.743   2.942  1.00  0.00    +0.159 HD
ENDBRANCH   7  10
ENDBRANCH   1   7
BRANCH   3  15
ATOM     15  N   UNL     1      -3.847   2.084  -0.351  1.00  0.00    -0.341 N 
ATOM     16  C   UNL     1      -2.911   3.111  -0.774  1.00  0.00    +0.120 C 
ATOM     17  C   UNL     1      -5.201   2.582  -0.186  1.00  0.00    +0.120 C 
ATOM     18  C   UNL     1      -3.758   4.347  -1.046  1.00  0.00    +0.023 C 
ATOM     19  C   UNL     1      -5.107   4.090  -0.375  1.00  0.00    +0.023 C 
ENDBRANCH   3  15
BRANCH   5  20
ATOM     20  C   UNL     1      -0.392  -1.332  -0.290  1.00  0.00    +0.144 A 
ATOM     21  N   UNL     1       0.540  -0.454  -0.724  1.00  0.00    -0.217 NA
ATOM     22  S   UNL     1       0.281  -2.860  -0.070  1.00  0.00    -0.119 S 
ATOM     23  C   UNL     1       1.769  -1.026  -0.852  1.00  0.00    +0.145 A 
ATOM     24  C   UNL     1       1.823  -2.385  -0.539  1.00  0.00    +0.114 A 
BRANCH  23  25
ATOM     25  N   UNL     1       2.884  -0.266  -1.342  1.00  0.00    -0.292 N 
ATOM     26  C   UNL     1       4.262  -0.597  -1.108  1.00  0.00    +0.320 C 
ATOM     27  O   UNL     1       4.576  -1.452  -0.237  1.00  0.00    -0.248 OA
ATOM     28  N   UNL     1       5.287   0.088  -1.841  1.00  0.00    -0.331 N 
ATOM     29  H   UNL     1       2.676   0.620  -1.853  1.00  0.00    +0.173 HD
ATOM     30  H   UNL     1       4.996   0.787  -2.563  1.00  0.00    +0.165 HD
BRANCH  28  31
ATOM     31  C   UNL     1       6.713  -0.157  -1.602  1.00  0.00    +0.111 C 
ATOM     32  C   UNL     1       7.561   0.457  -2.720  1.00  0.00    +0.036 C 
BRANCH  31  33
ATOM     33  C   UNL     1       7.131   0.410  -0.262  1.00  0.00    -0.026 A 
ATOM     34  C   UNL     1       7.919  -0.357   0.614  1.00  0.00    +0.006 A 
ATOM     35  C   UNL     1       6.774   1.720   0.108  1.00  0.00    +0.006 A 
ATOM     36  C   UNL     1       8.327   0.171   1.843  1.00  0.00    +0.000 A 
ATOM     37  C   UNL     1       7.184   2.243   1.339  1.00  0.00    +0.000 A 
ATOM     38  C   UNL     1       7.959   1.469   2.206  1.00  0.00    +0.000 A 
ENDBRANCH  31  33
ENDBRANCH  28  31
ENDBRANCH  23  25
ENDBRANCH   5  20
TORSDOF 7
