REMARK SMILES Cc1nc(NC(=O)N2CCC[C@H]2C(N)=O)sc1-c1ccnc(C(C)(C)C(F)(F)F)c1
REMARK SMILES IDX 1 1 2 2 17 3 16 4 4 5 3 6 18 7 30 8 19 9 22 10 20 11 21 12
REMARK SMILES IDX 23 13 24 14 25 15 26 16 27 17 28 18 29 19 5 20 6 21 7 22
REMARK SMILES IDX 8 24 9 25 12 26 10 27 11 28 13 29 15 30 14 31
REMARK H PARENT 5 23 14 32 14 33
ROOT
ATOM      1  C   UNL     1       0.488   2.054  -3.443  1.00  0.00    +0.068 C 
ATOM      2  C   UNL     1       0.047   1.548  -2.115  1.00  0.00    +0.058 A 
ATOM      3  C   UNL     1       0.856   1.181  -1.048  1.00  0.00    +0.059 A 
ATOM      4  S   UNL     1      -0.131   0.652   0.254  1.00  0.00    -0.096 S 
ATOM      5  C   UNL     1      -1.520   0.926  -0.685  1.00  0.00    +0.191 A 
ATOM      6  N   UNL     1      -1.315   1.413  -1.885  1.00  0.00    -0.225 NA
ENDROOT
BRANCH   3   7
ATOM      7  C   UNL     1       2.310   1.208  -0.905  1.00  0.00    -0.003 A 
ATOM      8  C   UNL     1       3.028   0.037  -0.635  1.00  0.00    +0.034 A 
ATOM      9  C   UNL     1       3.007   2.405  -1.045  1.00  0.00    +0.030 A 
ATOM     10  C   UNL     1       4.419   0.086  -0.513  1.00  0.00    +0.056 A 
ATOM     11  C   UNL     1       4.380   2.379  -0.905  1.00  0.00    +0.112 A 
ATOM     12  N   UNL     1       5.087   1.258  -0.645  1.00  0.00    -0.260 NA
BRANCH  10  13
ATOM     13  C   UNL     1       5.246  -1.166  -0.209  1.00  0.00    +0.102 C 
ATOM     14  C   UNL     1       4.766  -1.809   1.109  1.00  0.00    +0.027 C 
ATOM     15  C   UNL     1       6.744  -0.823  -0.040  1.00  0.00    +0.027 C 
BRANCH  13  16
ATOM     16  C   UNL     1       5.117  -2.172  -1.357  1.00  0.00    +0.399 C 
ATOM     17  F   UNL     1       3.843  -2.602  -1.522  1.00  0.00    -0.170 F 
ATOM     18  F   UNL     1       5.526  -1.663  -2.540  1.00  0.00    -0.170 F 
ATOM     19  F   UNL     1       5.867  -3.278  -1.122  1.00  0.00    -0.170 F 
ENDBRANCH  13  16
ENDBRANCH  10  13
ENDBRANCH   3   7
BRANCH   5  20
ATOM     20  N   UNL     1      -2.792   0.717  -0.219  1.00  0.00    -0.283 N 
ATOM     21  C   UNL     1      -3.157   0.018   0.898  1.00  0.00    +0.324 C 
ATOM     22  O   UNL     1      -2.401  -0.636   1.614  1.00  0.00    -0.248 OA
ATOM     23  H   UNL     1      -3.498   0.917  -0.909  1.00  0.00    +0.174 HD
BRANCH  21  24
ATOM     24  N   UNL     1      -4.516   0.055   1.170  1.00  0.00    -0.312 N 
ATOM     25  C   UNL     1      -5.449   1.056   0.669  1.00  0.00    +0.122 C 
ATOM     26  C   UNL     1      -5.071  -0.624   2.356  1.00  0.00    +0.176 C 
ATOM     27  C   UNL     1      -6.383   1.320   1.838  1.00  0.00    +0.024 C 
ATOM     28  C   UNL     1      -6.484  -0.043   2.501  1.00  0.00    +0.037 C 
BRANCH  26  29
ATOM     29  C   UNL     1      -5.138  -2.166   2.280  1.00  0.00    +0.240 C 
ATOM     30  O   UNL     1      -6.041  -2.831   2.785  1.00  0.00    -0.273 OA
ATOM     31  N   UNL     1      -4.056  -2.802   1.745  1.00  0.00    -0.368 N 
ATOM     32  H   UNL     1      -4.014  -3.804   1.865  1.00  0.00    +0.159 HD
ATOM     33  H   UNL     1      -3.168  -2.301   1.708  1.00  0.00    +0.159 HD
ENDBRANCH  26  29
ENDBRANCH  21  24
ENDBRANCH   5  20
TORSDOF 6
