REMARK SMILES Cc1sc(NC(=O)N2CCC[C@H]2C)nc1-c1ccc(C(C)(C)C#N)cn1
REMARK SMILES IDX 15 1 14 2 4 3 3 4 2 5 1 6 16 7 19 8 18 9 25 10 17 11 26 12
REMARK SMILES IDX 20 13 23 14 24 15 21 16 22 17 5 18 6 19 7 20 8 22 9 23 12 24
REMARK SMILES IDX 10 25 11 26 13 27
REMARK H PARENT 5 21
ROOT
ATOM      1  C   UNL     1       1.012  -0.596   0.789  1.00  0.00    +0.105 A 
ATOM      2  N   UNL     1      -0.176  -0.072   0.376  1.00  0.00    -0.218 NA
ATOM      3  C   UNL     1      -1.225  -0.541   1.085  1.00  0.00    +0.191 A 
ATOM      4  S   UNL     1      -0.730  -1.642   2.258  1.00  0.00    -0.101 S 
ATOM      5  C   UNL     1       0.897  -1.507   1.851  1.00  0.00    +0.033 A 
ATOM      6  C   UNL     1       1.996  -2.245   2.547  1.00  0.00    +0.059 C 
ENDROOT
BRANCH   1   7
ATOM      7  C   UNL     1       2.285  -0.208   0.135  1.00  0.00    +0.090 A 
ATOM      8  C   UNL     1       4.716   0.500  -1.088  1.00  0.00    -0.010 A 
ATOM      9  C   UNL     1       3.551   1.263  -1.307  1.00  0.00    +0.009 A 
ATOM     10  C   UNL     1       4.595  -0.641  -0.267  1.00  0.00    +0.117 A 
ATOM     11  C   UNL     1       2.345   0.919  -0.697  1.00  0.00    +0.031 A 
ATOM     12  N   UNL     1       3.408  -0.951   0.317  1.00  0.00    -0.254 NA
BRANCH   8  13
ATOM     13  C   UNL     1       6.024   0.882  -1.797  1.00  0.00    +0.078 C 
ATOM     14  C   UNL     1       6.279   2.325  -1.607  1.00  0.00    +0.073 C 
ATOM     15  N   UNL     1       6.479   3.455  -1.456  1.00  0.00    -0.197 NA
ATOM     16  C   UNL     1       7.256   0.130  -1.256  1.00  0.00    +0.033 C 
ATOM     17  C   UNL     1       5.890   0.598  -3.303  1.00  0.00    +0.033 C 
ENDBRANCH   8  13
ENDBRANCH   1   7
BRANCH   3  18
ATOM     18  N   UNL     1      -2.580  -0.166   0.790  1.00  0.00    -0.283 N 
ATOM     19  C   UNL     1      -3.721  -0.533   1.588  1.00  0.00    +0.323 C 
ATOM     20  O   UNL     1      -3.555  -1.031   2.735  1.00  0.00    -0.248 OA
ATOM     21  H   UNL     1      -2.722   0.398  -0.074  1.00  0.00    +0.174 HD
BRANCH  19  22
ATOM     22  N   UNL     1      -5.063  -0.326   1.106  1.00  0.00    -0.322 N 
ATOM     23  C   UNL     1      -6.218  -0.919   1.761  1.00  0.00    +0.122 C 
ATOM     24  C   UNL     1      -5.415   0.366  -0.129  1.00  0.00    +0.083 C 
ATOM     25  C   UNL     1      -7.427  -0.496   0.938  1.00  0.00    +0.024 C 
ATOM     26  C   UNL     1      -6.869  -0.025  -0.400  1.00  0.00    +0.027 C 
ATOM     27  C   UNL     1      -5.272   1.882   0.055  1.00  0.00    +0.031 C 
ENDBRANCH  19  22
ENDBRANCH   3  18
TORSDOF 4
