REMARK SMILES Cc1nc(NC(=O)N2CCC[C@H]2C(N)=O)sc1-c1ccnc(C(C)(C)C(F)(F)F)c1
REMARK SMILES IDX 1 1 2 2 17 3 16 4 4 5 3 6 18 7 30 8 19 9 22 10 20 11 21 12
REMARK SMILES IDX 23 13 24 14 25 15 26 16 27 17 28 18 29 19 5 20 6 21 7 22
REMARK SMILES IDX 8 24 9 25 12 26 10 27 11 28 13 29 15 30 14 31
REMARK H PARENT 5 23 14 32 14 33
ROOT
ATOM      1  C   UNL     1       1.896   2.768  -0.198  1.00  0.00    +0.068 C 
ATOM      2  C   UNL     1       0.828   1.774   0.097  1.00  0.00    +0.058 A 
ATOM      3  C   UNL     1       0.971   0.553   0.741  1.00  0.00    +0.059 A 
ATOM      4  S   UNL     1      -0.563  -0.211   0.848  1.00  0.00    -0.096 S 
ATOM      5  C   UNL     1      -1.281   1.105   0.051  1.00  0.00    +0.191 A 
ATOM      6  N   UNL     1      -0.469   2.075  -0.298  1.00  0.00    -0.225 NA
ENDROOT
BRANCH   3   7
ATOM      7  C   UNL     1       2.164  -0.108   1.270  1.00  0.00    -0.003 A 
ATOM      8  C   UNL     1       3.270  -0.331   0.441  1.00  0.00    +0.034 A 
ATOM      9  C   UNL     1       2.234  -0.513   2.601  1.00  0.00    +0.030 A 
ATOM     10  C   UNL     1       4.418  -0.940   0.957  1.00  0.00    +0.056 A 
ATOM     11  C   UNL     1       3.395  -1.118   3.038  1.00  0.00    +0.112 A 
ATOM     12  N   UNL     1       4.471  -1.335   2.252  1.00  0.00    -0.260 NA
BRANCH  10  13
ATOM     13  C   UNL     1       5.648  -1.207   0.086  1.00  0.00    +0.102 C 
ATOM     14  C   UNL     1       6.757  -1.931   0.884  1.00  0.00    +0.027 C 
ATOM     15  C   UNL     1       5.265  -2.110  -1.103  1.00  0.00    +0.027 C 
BRANCH  13  16
ATOM     16  C   UNL     1       6.225   0.117  -0.428  1.00  0.00    +0.399 C 
ATOM     17  F   UNL     1       6.580   0.951   0.574  1.00  0.00    -0.170 F 
ATOM     18  F   UNL     1       5.348   0.786  -1.217  1.00  0.00    -0.170 F 
ATOM     19  F   UNL     1       7.333  -0.093  -1.181  1.00  0.00    -0.170 F 
ENDBRANCH  13  16
ENDBRANCH  10  13
ENDBRANCH   3   7
BRANCH   5  20
ATOM     20  N   UNL     1      -2.619   1.180  -0.237  1.00  0.00    -0.283 N 
ATOM     21  C   UNL     1      -3.596   0.282   0.091  1.00  0.00    +0.324 C 
ATOM     22  O   UNL     1      -3.432  -0.762   0.720  1.00  0.00    -0.248 OA
ATOM     23  H   UNL     1      -2.861   2.029  -0.717  1.00  0.00    +0.174 HD
BRANCH  21  24
ATOM     24  N   UNL     1      -4.858   0.620  -0.361  1.00  0.00    -0.312 N 
ATOM     25  C   UNL     1      -5.254   1.821  -1.083  1.00  0.00    +0.122 C 
ATOM     26  C   UNL     1      -6.034  -0.182   0.009  1.00  0.00    +0.176 C 
ATOM     27  C   UNL     1      -6.731   1.635  -1.388  1.00  0.00    +0.024 C 
ATOM     28  C   UNL     1      -7.213   0.762  -0.236  1.00  0.00    +0.037 C 
BRANCH  26  29
ATOM     29  C   UNL     1      -6.116  -1.457  -0.857  1.00  0.00    +0.240 C 
ATOM     30  O   UNL     1      -6.889  -1.612  -1.797  1.00  0.00    -0.273 OA
ATOM     31  N   UNL     1      -5.232  -2.442  -0.514  1.00  0.00    -0.368 N 
ATOM     32  H   UNL     1      -4.409  -2.188   0.035  1.00  0.00    +0.159 HD
ATOM     33  H   UNL     1      -5.151  -3.229  -1.142  1.00  0.00    +0.159 HD
ENDBRANCH  26  29
ENDBRANCH  21  24
ENDBRANCH   5  20
TORSDOF 6
