REMARK SMILES Cc1ccc(N2CCN(c3nc(Nc4ccc(-c5ccccc5)cc4)c4ccccc4n3)CC2)cc1
REMARK SMILES IDX 10 1 32 2 31 3 30 4 29 5 28 6 27 7 26 8 12 9 11 10 9 11 6 12
REMARK SMILES IDX 7 13 34 14 8 15 33 16 5 17 2 18 3 19 36 20 4 21 35 22 1 23
REMARK SMILES IDX 13 24 14 26 15 27 25 28 16 29 24 30 17 31 18 32 19 33 23 34
REMARK SMILES IDX 20 35 22 36 21 37
REMARK H PARENT 13 25
ROOT
ATOM      1  C   UNL     1      -1.003   0.673  -0.292  1.00  0.00    +0.228 A 
ATOM      2  N   UNL     1      -0.874   1.998  -0.575  1.00  0.00    -0.213 NA
ATOM      3  C   UNL     1       0.176   2.469  -1.295  1.00  0.00    +0.078 A 
ATOM      4  C   UNL     1       0.269   3.835  -1.582  1.00  0.00    +0.029 A 
ATOM      5  C   UNL     1       1.335   4.320  -2.344  1.00  0.00    +0.002 A 
ATOM      6  C   UNL     1       2.307   3.442  -2.828  1.00  0.00    +0.001 A 
ATOM      7  C   UNL     1       2.225   2.075  -2.546  1.00  0.00    +0.014 A 
ATOM      8  C   UNL     1       1.167   1.578  -1.762  1.00  0.00    +0.043 A 
ATOM      9  C   UNL     1       1.031   0.213  -1.435  1.00  0.00    +0.143 A 
ATOM     10  N   UNL     1      -0.053  -0.198  -0.728  1.00  0.00    -0.195 NA
ENDROOT
BRANCH   1  11
ATOM     11  N   UNL     1      -2.131   0.204   0.476  1.00  0.00    -0.337 N 
ATOM     12  N   UNL     1      -4.651  -0.608   1.375  1.00  0.00    -0.368 N 
ATOM     13  C   UNL     1      -4.008   0.510   2.073  1.00  0.00    +0.138 C 
ATOM     14  C   UNL     1      -3.827  -1.589   0.652  1.00  0.00    +0.138 C 
ATOM     15  C   UNL     1      -3.002   1.188   1.141  1.00  0.00    +0.141 C 
ATOM     16  C   UNL     1      -2.334  -1.236   0.711  1.00  0.00    +0.141 C 
BRANCH  12  17
ATOM     17  C   UNL     1      -6.085  -0.723   1.346  1.00  0.00    +0.037 A 
ATOM     18  C   UNL     1      -8.893  -0.945   1.288  1.00  0.00    -0.051 A 
ATOM     19  C   UNL     1      -8.104  -2.044   1.657  1.00  0.00    +0.005 A 
ATOM     20  C   UNL     1      -8.270   0.257   0.923  1.00  0.00    +0.005 A 
ATOM     21  C   UNL     1      -6.710  -1.934   1.688  1.00  0.00    +0.026 A 
ATOM     22  C   UNL     1      -6.877   0.369   0.955  1.00  0.00    +0.026 A 
ATOM     23  C   UNL     1     -10.387  -1.068   1.221  1.00  0.00    +0.044 C 
ENDBRANCH  12  17
ENDBRANCH   1  11
BRANCH   9  24
ATOM     24  N   UNL     1       2.001  -0.763  -1.839  1.00  0.00    -0.340 N 
ATOM     25  H   UNL     1       1.650  -1.594  -2.366  1.00  0.00    +0.168 HD
BRANCH  24  26
ATOM     26  C   UNL     1       3.366  -0.765  -1.384  1.00  0.00    +0.040 A 
ATOM     27  C   UNL     1       4.292  -1.622  -1.994  1.00  0.00    +0.027 A 
ATOM     28  C   UNL     1       3.792   0.055  -0.323  1.00  0.00    +0.027 A 
ATOM     29  C   UNL     1       5.622  -1.650  -1.568  1.00  0.00    +0.011 A 
ATOM     30  C   UNL     1       5.120   0.023   0.107  1.00  0.00    +0.011 A 
ATOM     31  C   UNL     1       6.051  -0.829  -0.511  1.00  0.00    -0.018 A 
BRANCH  31  32
ATOM     32  C   UNL     1       7.462  -0.867  -0.051  1.00  0.00    -0.018 A 
ATOM     33  C   UNL     1       7.768  -0.827   1.323  1.00  0.00    +0.009 A 
ATOM     34  C   UNL     1       8.517  -0.944  -0.980  1.00  0.00    +0.009 A 
ATOM     35  C   UNL     1       9.098  -0.866   1.754  1.00  0.00    +0.001 A 
ATOM     36  C   UNL     1       9.844  -0.978  -0.543  1.00  0.00    +0.001 A 
ATOM     37  C   UNL     1      10.135  -0.941   0.822  1.00  0.00    +0.000 A 
ENDBRANCH  31  32
ENDBRANCH  24  26
ENDBRANCH   9  24
TORSDOF 5
