REMARK SMILES Cc1nc(-c2ccc(F)c(N3CCOCC3)c2)nc(N2CCOCC2)n1
REMARK SMILES IDX 1 1 2 2 3 3 4 4 18 5 19 6 26 7 5 8 6 9 17 10 7 11 10 12 8 13
REMARK SMILES IDX 9 14 11 15 12 16 16 17 13 18 15 19 14 20 20 21 21 22 25 23
REMARK SMILES IDX 22 24 24 25 23 26
REMARK H PARENT
ROOT
ATOM      1  C   UNL     1      -3.634  -4.158  -0.609  1.00  0.00    +0.090 C 
ATOM      2  C   UNL     1      -2.813  -2.932  -0.395  1.00  0.00    +0.131 A 
ATOM      3  N   UNL     1      -1.480  -2.954  -0.647  1.00  0.00    -0.213 NA
ATOM      4  C   UNL     1      -0.730  -1.832  -0.488  1.00  0.00    +0.165 A 
ATOM      5  N   UNL     1      -1.333  -0.683  -0.081  1.00  0.00    -0.193 NA
ATOM      6  C   UNL     1      -2.670  -0.645   0.163  1.00  0.00    +0.229 A 
ATOM      7  N   UNL     1      -3.406  -1.776  -0.004  1.00  0.00    -0.198 NA
ENDROOT
BRANCH   4   8
ATOM      8  C   UNL     1       0.729  -1.856  -0.759  1.00  0.00    +0.022 A 
ATOM      9  C   UNL     1       1.342  -3.009  -1.283  1.00  0.00    +0.015 A 
ATOM     10  C   UNL     1       1.524  -0.725  -0.496  1.00  0.00    +0.041 A 
ATOM     11  C   UNL     1       2.715  -3.027  -1.539  1.00  0.00    +0.042 A 
ATOM     12  C   UNL     1       2.905  -0.740  -0.750  1.00  0.00    +0.074 A 
ATOM     13  C   UNL     1       3.497  -1.901  -1.276  1.00  0.00    +0.146 A 
ATOM     14  F   UNL     1       4.833  -1.957  -1.501  1.00  0.00    -0.205 F 
BRANCH  12  15
ATOM     15  N   UNL     1       3.693   0.430  -0.464  1.00  0.00    -0.365 N 
ATOM     16  C   UNL     1       4.618   0.972  -1.460  1.00  0.00    +0.145 C 
ATOM     17  C   UNL     1       3.809   0.914   0.914  1.00  0.00    +0.145 C 
ATOM     18  C   UNL     1       4.719   2.490  -1.288  1.00  0.00    +0.181 C 
ATOM     19  C   UNL     1       3.981   2.438   0.908  1.00  0.00    +0.181 C 
ATOM     20  O   UNL     1       5.039   2.822   0.049  1.00  0.00    -0.378 OA
ENDBRANCH  12  15
ENDBRANCH   4   8
BRANCH   6  21
ATOM     21  N   UNL     1      -3.301   0.584   0.582  1.00  0.00    -0.336 N 
ATOM     22  C   UNL     1      -2.550   1.845   0.500  1.00  0.00    +0.148 C 
ATOM     23  C   UNL     1      -4.764   0.642   0.703  1.00  0.00    +0.148 C 
ATOM     24  C   UNL     1      -3.171   2.909   1.412  1.00  0.00    +0.181 C 
ATOM     25  C   UNL     1      -5.186   1.806   1.604  1.00  0.00    +0.181 C 
ATOM     26  O   UNL     1      -4.564   3.007   1.195  1.00  0.00    -0.378 OA
ENDBRANCH   6  21
TORSDOF 3
