REMARK SMILES CO[C@@H]1C(=O)C2=C3C[C@@H](OC(=O)[C@@H](O)[C@@H](NC(=O)OC(C)(C)C)c4ccccc4)C[C@]3(O)C(C)(C)[C@@H]3C[C@H](OC(=O)c4ccccc4)[C@@]2(C)[C@]13C
REMARK SMILES IDX 11 1 12 2 13 3 15 4 16 5 17 6 18 7 19 9 20 10 21 11 22 12
REMARK SMILES IDX 23 13 24 14 25 15 29 16 26 17 28 18 27 19 14 20 10 22 9 23
REMARK SMILES IDX 30 24 8 25 31 26 7 27 6 28 4 29 48 30 5 31 3 32 38 33 50 34
REMARK SMILES IDX 37 35 36 36 49 37 51 38 32 40 33 42 34 43 35 44 2 46 1 47
REMARK SMILES IDX 39 48 40 49 41 50 42 51 43 52 47 53 44 54 46 55 45 56
REMARK H PARENT 16 8 14 21 32 41
REMARK Flexibility Score:  196.900
ROOT
ATOM      1  C   UNL     1      -2.088   0.460  -0.459  1.00  0.00    +0.337 C 
ATOM      2  O   UNL     1      -1.934   1.419  -1.262  1.00  0.00    -0.249 OA
ENDROOT
BRANCH   1   3
ATOM      3  C   UNL     1      -3.468  -0.139  -0.256  1.00  0.00    +0.251 C 
BRANCH   3   4
ATOM      4  C   UNL     1      -4.525   0.941   0.064  1.00  0.00    +0.156 C 
BRANCH   4   5
ATOM      5  N   UNL     1      -5.833   0.315   0.280  1.00  0.00    -0.311 N 
ATOM      6  C   UNL     1      -6.916   0.415  -0.652  1.00  0.00    +0.408 C 
ATOM      7  O   UNL     1      -6.787   1.125  -1.692  1.00  0.00    -0.225 OA
ATOM      8  H   UNL     1      -5.954  -0.331   1.097  1.00  0.00    +0.167 HD
BRANCH   6   9
ATOM      9  O   UNL     1      -8.112  -0.259  -0.375  1.00  0.00    -0.444 OA
BRANCH   9  10
ATOM     10  C   UNL     1      -9.293  -0.269  -1.185  1.00  0.00    +0.106 C 
ATOM     11  C   UNL     1      -9.820   1.155  -1.406  1.00  0.00    +0.056 C 
ATOM     12  C   UNL     1     -10.350  -1.087  -0.432  1.00  0.00    +0.056 C 
ATOM     13  C   UNL     1      -9.009  -0.942  -2.545  1.00  0.00    +0.056 C 
ENDBRANCH   9  10
ENDBRANCH   6   9
ENDBRANCH   4   5
BRANCH   4  14
ATOM     14  C   UNL     1      -4.144   1.854   1.226  1.00  0.00    -0.022 A 
ATOM     15  C   UNL     1      -4.294   1.442   2.568  1.00  0.00    +0.006 A 
ATOM     16  C   UNL     1      -3.653   3.153   0.978  1.00  0.00    +0.006 A 
ATOM     17  C   UNL     1      -3.949   2.304   3.615  1.00  0.00    +0.000 A 
ATOM     18  C   UNL     1      -3.344   4.020   2.030  1.00  0.00    +0.000 A 
ATOM     19  C   UNL     1      -3.460   3.583   3.348  1.00  0.00    +0.000 A 
ENDBRANCH   4  14
ENDBRANCH   3   4
BRANCH   3  20
ATOM     20  O   UNL     1      -3.474  -1.159   0.710  1.00  0.00    -0.379 OA
ATOM     21  H   UNL     1      -3.028  -0.798   1.520  1.00  0.00    +0.211 HD
ENDBRANCH   3  20
ENDBRANCH   1   3
BRANCH   1  22
ATOM     22  O   UNL     1      -1.005  -0.063   0.261  1.00  0.00    -0.460 OA
BRANCH  22  23
ATOM     23  C   UNL     1       0.300   0.508   0.270  1.00  0.00    +0.184 C 
ATOM     24  C   UNL     1       1.061  -0.156   1.417  1.00  0.00    +0.086 C 
ATOM     25  C   UNL     1       1.091   0.125  -0.983  1.00  0.00    +0.080 C 
ATOM     26  C   UNL     1       1.579  -1.475   0.819  1.00  0.00    +0.095 C 
ATOM     27  C   UNL     1       1.960  -1.006  -0.575  1.00  0.00    -0.027 C 
ATOM     28  C   UNL     1       3.088  -1.325  -1.229  1.00  0.00    +0.010 C 
ATOM     29  C   UNL     1       3.247  -2.766  -1.491  1.00  0.00    +0.188 C 
ATOM     30  C   UNL     1       4.483  -0.898  -0.741  1.00  0.00    +0.042 C 
ATOM     31  O   UNL     1       2.437  -3.433  -2.200  1.00  0.00    -0.292 OA
ATOM     32  C   UNL     1       4.471  -3.341  -0.885  1.00  0.00    +0.196 C 
ATOM     33  C   UNL     1       4.609   0.223   0.304  1.00  0.00    +0.188 C 
ATOM     34  C   UNL     1       4.935  -2.168   0.012  1.00  0.00    +0.018 C 
ATOM     35  C   UNL     1       4.495  -0.439   1.685  1.00  0.00    +0.051 C 
ATOM     36  C   UNL     1       4.219  -1.940   1.428  1.00  0.00    +0.011 CG0
ATOM     37  C   UNL     1       5.315  -0.502  -1.983  1.00  0.00    +0.021 C 
ATOM     38  C   UNL     1       6.483  -2.262   0.230  1.00  0.00    +0.016 C 
ATOM     39  G   UNL     1       2.680  -2.272   1.695  1.00  0.00    +0.000 G0
BRANCH  26  40
ATOM     40  O   UNL     1       0.415  -2.274   0.707  1.00  0.00    -0.385 OA
ATOM     41  H   UNL     1       0.472  -2.886  -0.077  1.00  0.00    +0.211 HD
ENDBRANCH  26  40
BRANCH  26  42
ATOM     42  C   UNL     1       2.680  -2.272   1.695  1.00  0.00    +0.001 CG0
ATOM     43  C   UNL     1       2.383  -2.060   3.210  1.00  0.00    +0.015 C 
ATOM     44  C   UNL     1       2.458  -3.806   1.541  1.00  0.00    +0.015 C 
ATOM     45  G   UNL     1       4.219  -1.940   1.428  1.00  0.00    +0.000 G0
ENDBRANCH  26  42
BRANCH  32  46
ATOM     46  O   UNL     1       5.397  -3.603  -1.944  1.00  0.00    -0.373 OA
ATOM     47  C   UNL     1       5.983  -4.889  -1.827  1.00  0.00    +0.196 C 
ENDBRANCH  32  46
BRANCH  33  48
ATOM     48  O   UNL     1       3.662   1.261   0.055  1.00  0.00    -0.458 OA
BRANCH  48  49
ATOM     49  C   UNL     1       3.690   2.499   0.684  1.00  0.00    +0.338 C 
ATOM     50  O   UNL     1       3.865   2.575   1.920  1.00  0.00    -0.246 OA
BRANCH  49  51
ATOM     51  C   UNL     1       3.838   3.694  -0.166  1.00  0.00    +0.060 A 
ATOM     52  C   UNL     1       5.022   4.431  -0.069  1.00  0.00    +0.015 A 
ATOM     53  C   UNL     1       2.968   3.887  -1.272  1.00  0.00    +0.015 A 
ATOM     54  C   UNL     1       5.391   5.276  -1.106  1.00  0.00    +0.001 A 
ATOM     55  C   UNL     1       3.333   4.767  -2.287  1.00  0.00    +0.001 A 
ATOM     56  C   UNL     1       4.543   5.462  -2.216  1.00  0.00    +0.000 A 
ENDBRANCH  49  51
ENDBRANCH  48  49
ENDBRANCH  33  48
ENDBRANCH  22  23
ENDBRANCH   1  22
TORSDOF 14
