REMARK SMILES CO[C@H]1C(=O)[C@]2(C)[C@@H]([C@@H](OC(=O)c3ccccc3)[C@]3(O)C[C@H](OC(=O)[C@H](O)[C@@H](NC(=O)OC(C)(C)C)c4ccccc4)C(C)=C1C3(C)C)[C@]1(OC(C)=O)CO[C@]1(OC(C)=O)C[C@H]2OC
REMARK SMILES IDX 23 1 24 2 25 3 26 4 28 5 29 6 30 7 31 8 32 10 33 11 34 12
REMARK SMILES IDX 35 13 36 14 37 15 38 16 42 17 39 18 41 19 40 20 27 21 22 23
REMARK SMILES IDX 21 24 43 25 19 26 45 27 46 28 44 29 47 30 48 31 20 33 9 35
REMARK SMILES IDX 10 36 11 37 12 38 13 39 14 40 18 41 15 42 17 43 16 44 8 45
REMARK SMILES IDX 49 46 6 47 54 48 56 49 62 50 55 51 61 52 7 53 50 54 51 55
REMARK SMILES IDX 53 56 52 57 4 58 5 59 3 60 2 62 1 63 57 64 58 65 60 66 59 67
REMARK SMILES IDX 63 68 64 69
REMARK H PARENT 29 9 27 22 20 34
REMARK Flexibility Score:  146.900
ROOT
ATOM      1  O   UNL     1       2.700  -0.468   0.800  1.00  0.00    -0.456 OA
ENDROOT
BRANCH   1   2
ATOM      2  C   UNL     1       3.413  -1.142  -0.198  1.00  0.00    +0.338 C 
ATOM      3  O   UNL     1       3.115  -0.973  -1.419  1.00  0.00    -0.249 OA
BRANCH   2   4
ATOM      4  C   UNL     1       4.566  -2.052   0.152  1.00  0.00    +0.251 C 
BRANCH   4   5
ATOM      5  C   UNL     1       5.959  -1.362   0.172  1.00  0.00    +0.156 C 
BRANCH   5   6
ATOM      6  N   UNL     1       6.279  -0.758  -1.130  1.00  0.00    -0.311 N 
ATOM      7  C   UNL     1       7.619  -0.434  -1.521  1.00  0.00    +0.408 C 
ATOM      8  O   UNL     1       8.595  -0.821  -0.820  1.00  0.00    -0.225 OA
ATOM      9  H   UNL     1       5.516  -0.426  -1.760  1.00  0.00    +0.167 HD
BRANCH   7  10
ATOM     10  O   UNL     1       7.817   0.309  -2.695  1.00  0.00    -0.444 OA
BRANCH  10  11
ATOM     11  C   UNL     1       9.068   0.796  -3.202  1.00  0.00    +0.106 C 
ATOM     12  C   UNL     1       8.759   1.600  -4.476  1.00  0.00    +0.056 C 
ATOM     13  C   UNL     1       9.743   1.728  -2.180  1.00  0.00    +0.056 C 
ATOM     14  C   UNL     1      10.000  -0.377  -3.564  1.00  0.00    +0.056 C 
ENDBRANCH  10  11
ENDBRANCH   7  10
ENDBRANCH   5   6
BRANCH   5  15
ATOM     15  C   UNL     1       6.100  -0.339   1.286  1.00  0.00    -0.022 A 
ATOM     16  C   UNL     1       6.659  -0.726   2.521  1.00  0.00    +0.006 A 
ATOM     17  C   UNL     1       5.685   0.996   1.114  1.00  0.00    +0.006 A 
ATOM     18  C   UNL     1       6.819   0.206   3.547  1.00  0.00    +0.000 A 
ATOM     19  C   UNL     1       5.857   1.927   2.142  1.00  0.00    +0.000 A 
ATOM     20  C   UNL     1       6.425   1.533   3.357  1.00  0.00    +0.000 A 
ENDBRANCH   5  15
ENDBRANCH   4   5
BRANCH   4  21
ATOM     21  O   UNL     1       4.325  -2.731   1.365  1.00  0.00    -0.379 OA
ATOM     22  H   UNL     1       4.147  -2.050   2.068  1.00  0.00    +0.211 HD
ENDBRANCH   4  21
ENDBRANCH   2   4
ENDBRANCH   1   2
BRANCH   1  23
ATOM     23  C   UNL     1       1.456   0.187   0.544  1.00  0.00    +0.205 C 
ATOM     24  C   UNL     1       0.321  -0.876   0.154  1.00  0.00    +0.090 C 
ATOM     25  C   UNL     1       1.093   1.186   1.716  1.00  0.00    -0.030 C 
ATOM     26  C   UNL     1      -1.015  -0.315   0.713  1.00  0.00    +0.115 C 
ATOM     27  C   UNL     1      -0.139   1.118   2.354  1.00  0.00    -0.023 CG0
ATOM     28  C   UNL     1      -0.753  -0.236   2.303  1.00  0.00    +0.022 C 
ATOM     29  C   UNL     1       1.977   2.390   1.891  1.00  0.00    +0.043 C 
ATOM     30  C   UNL     1      -1.921  -0.407   3.328  1.00  0.00    +0.019 C 
ATOM     31  C   UNL     1       0.245  -1.310   2.917  1.00  0.00    +0.019 C 
ATOM     32  G   UNL     1      -1.130   2.339   2.293  1.00  0.00    +0.000 G0
BRANCH  26  33
ATOM     33  O   UNL     1      -1.052   0.958   0.053  1.00  0.00    -0.385 OA
ATOM     34  H   UNL     1      -0.970   0.845  -0.930  1.00  0.00    +0.211 HD
ENDBRANCH  26  33
BRANCH  26  35
ATOM     35  C   UNL     1      -2.408  -0.928   0.416  1.00  0.00    +0.218 C 
BRANCH  35  36
ATOM     36  O   UNL     1      -2.306  -1.770  -0.736  1.00  0.00    -0.455 OA
BRANCH  36  37
ATOM     37  C   UNL     1      -2.328  -3.175  -0.672  1.00  0.00    +0.338 C 
ATOM     38  O   UNL     1      -2.280  -3.764   0.444  1.00  0.00    -0.246 OA
BRANCH  37  39
ATOM     39  C   UNL     1      -2.423  -3.964  -1.915  1.00  0.00    +0.060 A 
ATOM     40  C   UNL     1      -2.343  -3.332  -3.170  1.00  0.00    +0.015 A 
ATOM     41  C   UNL     1      -2.624  -5.356  -1.865  1.00  0.00    +0.015 A 
ATOM     42  C   UNL     1      -2.467  -4.079  -4.348  1.00  0.00    +0.001 A 
ATOM     43  C   UNL     1      -2.746  -6.097  -3.046  1.00  0.00    +0.001 A 
ATOM     44  C   UNL     1      -2.658  -5.460  -4.285  1.00  0.00    +0.000 A 
ENDBRANCH  37  39
ENDBRANCH  36  37
ENDBRANCH  35  36
BRANCH  35  45
ATOM     45  C   UNL     1      -3.475   0.230   0.142  1.00  0.00    +0.103 C 
ATOM     46  C   UNL     1      -4.796  -0.391  -0.425  1.00  0.00    +0.208 C 
ATOM     47  C   UNL     1      -3.805   1.410   1.231  1.00  0.00    +0.066 C 
ATOM     48  C   UNL     1      -4.804  -0.759  -1.910  1.00  0.00    +0.221 C 
ATOM     49  C   UNL     1      -5.824   0.653  -0.871  1.00  0.00    +0.259 C 
ATOM     50  C   UNL     1      -4.439   2.574   0.371  1.00  0.00    +0.138 C 
ATOM     51  O   UNL     1      -5.829   0.167  -2.198  1.00  0.00    -0.332 OA
ATOM     52  C   UNL     1      -5.330   2.132  -0.846  1.00  0.00    +0.117 C 
ATOM     53  C   UNL     1      -4.951   0.878   2.189  1.00  0.00    +0.023 C 
BRANCH  46  54
ATOM     54  O   UNL     1      -5.299  -1.446   0.422  1.00  0.00    -0.449 OA
BRANCH  54  55
ATOM     55  C   UNL     1      -6.395  -2.301   0.209  1.00  0.00    +0.303 C 
ATOM     56  O   UNL     1      -7.134  -2.191  -0.805  1.00  0.00    -0.253 OA
ATOM     57  C   UNL     1      -6.714  -3.335   1.237  1.00  0.00    +0.139 C 
ENDBRANCH  54  55
ENDBRANCH  46  54
BRANCH  47  58
ATOM     58  C   UNL     1      -2.716   2.164   2.197  1.00  0.00    +0.174 C 
ATOM     59  O   UNL     1      -3.258   2.895   3.020  1.00  0.00    -0.296 OA
BRANCH  58  60
ATOM     60  C   UNL     1      -1.130   2.339   2.293  1.00  0.00    +0.212 CG0
ATOM     61  G   UNL     1      -0.139   1.118   2.354  1.00  0.00    +0.000 G0
BRANCH  60  62
ATOM     62  O   UNL     1      -0.733   3.251   1.271  1.00  0.00    -0.369 OA
ATOM     63  C   UNL     1      -0.707   4.582   1.744  1.00  0.00    +0.196 C 
ENDBRANCH  60  62
ENDBRANCH  58  60
ENDBRANCH  47  58
BRANCH  49  64
ATOM     64  O   UNL     1      -7.102   0.487  -0.254  1.00  0.00    -0.429 OA
BRANCH  64  65
ATOM     65  C   UNL     1      -8.308   0.947  -0.806  1.00  0.00    +0.305 C 
ATOM     66  O   UNL     1      -8.322   1.564  -1.909  1.00  0.00    -0.253 OA
ATOM     67  C   UNL     1      -9.596   0.638  -0.122  1.00  0.00    +0.139 C 
ENDBRANCH  64  65
ENDBRANCH  49  64
BRANCH  50  68
ATOM     68  O   UNL     1      -5.193   3.453   1.201  1.00  0.00    -0.380 OA
ATOM     69  C   UNL     1      -5.009   4.798   0.807  1.00  0.00    +0.195 C 
ENDBRANCH  50  68
ENDBRANCH  35  45
ENDBRANCH  26  35
ENDBRANCH   1  23
TORSDOF 19
