REMARK SMILES CO[C@H]1C(=O)[C@]2(C)[C@@H](OC)C[C@H]3OC[C@@]3(OC(C)=O)[C@H]2[C@H](OC(=O)c2ccccc2)[C@]2(O)C[C@H](OC(=O)[C@H](O)[C@@H](NC(=O)OC(C)(C)C)c3ccccc3)C(C)=C1C2(C)C
REMARK SMILES IDX 35 1 34 2 55 3 57 4 58 5 33 6 31 7 56 8 59 9 60 10 21 12
REMARK SMILES IDX 20 13 15 14 6 15 12 16 14 17 8 18 11 19 13 20 7 21 16 22
REMARK SMILES IDX 17 23 19 24 18 25 4 26 5 27 3 28 2 30 1 31 9 32 10 33 22 34
REMARK SMILES IDX 23 35 24 36 25 37 26 38 30 39 27 40 29 41 28 42 32 43 36 45
REMARK SMILES IDX 37 46 38 47 40 48 49 49 50 50 54 51 51 52 53 53 52 54 41 55
REMARK SMILES IDX 42 56 43 57 44 59 45 60 46 61 47 62 48 63 39 64
REMARK H PARENT 32 44 41 58 39 65
REMARK Flexibility Score:  146.900
ROOT
ATOM      1  O   UNL     1       1.435  -1.608   1.487  1.00  0.00    -0.456 OA
ENDROOT
BRANCH   1   2
ATOM      2  C   UNL     1       0.217  -1.381   2.232  1.00  0.00    +0.205 C 
ATOM      3  C   UNL     1      -0.771  -2.487   1.898  1.00  0.00    -0.030 C 
ATOM      4  C   UNL     1      -2.116  -2.241   1.900  1.00  0.00    -0.023 CG0
ATOM      5  C   UNL     1      -2.600  -0.950   2.581  1.00  0.00    +0.022 C 
ATOM      6  C   UNL     1      -0.303   0.019   1.848  1.00  0.00    +0.090 C 
ATOM      7  C   UNL     1      -1.854   0.207   1.849  1.00  0.00    +0.115 C 
ATOM      8  C   UNL     1      -0.122  -3.805   1.531  1.00  0.00    +0.043 C 
ATOM      9  C   UNL     1      -4.123  -0.664   2.689  1.00  0.00    +0.019 C 
ATOM     10  C   UNL     1      -2.226  -1.017   4.108  1.00  0.00    +0.019 C 
ATOM     11  G   UNL     1      -3.047  -3.123   1.077  1.00  0.00    +0.000 G0
BRANCH   7  12
ATOM     12  C   UNL     1      -2.419   0.537   0.378  1.00  0.00    +0.218 C 
BRANCH  12  13
ATOM     13  C   UNL     1      -2.049  -0.397  -0.885  1.00  0.00    +0.098 C 
ATOM     14  C   UNL     1      -1.788   0.517  -2.151  1.00  0.00    +0.169 C 
ATOM     15  C   UNL     1      -3.008  -1.653  -1.232  1.00  0.00    +0.066 C 
ATOM     16  C   UNL     1      -2.061  -0.019  -3.602  1.00  0.00    +0.168 C 
ATOM     17  C   UNL     1      -2.892   1.548  -2.577  1.00  0.00    +0.212 C 
ATOM     18  C   UNL     1      -2.768  -2.189  -2.714  1.00  0.00    +0.134 C 
ATOM     19  C   UNL     1      -3.033  -1.150  -3.786  1.00  0.00    +0.069 C 
ATOM     20  O   UNL     1      -2.702   1.227  -3.976  1.00  0.00    -0.370 OA
ATOM     21  C   UNL     1      -4.507  -1.339  -1.100  1.00  0.00    +0.023 C 
BRANCH  14  22
ATOM     22  O   UNL     1      -0.488   1.184  -2.009  1.00  0.00    -0.454 OA
BRANCH  22  23
ATOM     23  C   UNL     1       0.618   0.453  -2.308  1.00  0.00    +0.303 C 
ATOM     24  O   UNL     1       0.634  -0.755  -2.495  1.00  0.00    -0.253 OA
ATOM     25  C   UNL     1       1.802   1.358  -2.461  1.00  0.00    +0.139 C 
ENDBRANCH  22  23
ENDBRANCH  14  22
BRANCH  15  26
ATOM     26  C   UNL     1      -2.605  -2.920  -0.392  1.00  0.00    +0.174 C 
ATOM     27  O   UNL     1      -1.812  -3.755  -0.861  1.00  0.00    -0.296 OA
BRANCH  26  28
ATOM     28  C   UNL     1      -3.047  -3.123   1.077  1.00  0.00    +0.212 CG0
ATOM     29  G   UNL     1      -2.116  -2.241   1.900  1.00  0.00    +0.000 G0
BRANCH  28  30
ATOM     30  O   UNL     1      -4.415  -2.947   1.350  1.00  0.00    -0.369 OA
ATOM     31  C   UNL     1      -5.197  -4.089   1.015  1.00  0.00    +0.196 C 
ENDBRANCH  28  30
ENDBRANCH  26  28
ENDBRANCH  15  26
BRANCH  18  32
ATOM     32  O   UNL     1      -3.678  -3.279  -2.967  1.00  0.00    -0.380 OA
ATOM     33  C   UNL     1      -3.133  -4.272  -3.830  1.00  0.00    +0.195 C 
ENDBRANCH  18  32
ENDBRANCH  12  13
BRANCH  12  34
ATOM     34  O   UNL     1      -1.907   1.899   0.141  1.00  0.00    -0.455 OA
BRANCH  34  35
ATOM     35  C   UNL     1      -2.794   2.929   0.220  1.00  0.00    +0.338 C 
ATOM     36  O   UNL     1      -4.002   2.820   0.353  1.00  0.00    -0.246 OA
BRANCH  35  37
ATOM     37  C   UNL     1      -2.097   4.237   0.099  1.00  0.00    +0.060 A 
ATOM     38  C   UNL     1      -0.726   4.338  -0.169  1.00  0.00    +0.015 A 
ATOM     39  C   UNL     1      -2.859   5.404   0.249  1.00  0.00    +0.015 A 
ATOM     40  C   UNL     1      -0.129   5.596  -0.292  1.00  0.00    +0.001 A 
ATOM     41  C   UNL     1      -2.257   6.658   0.131  1.00  0.00    +0.001 A 
ATOM     42  C   UNL     1      -0.893   6.752  -0.140  1.00  0.00    +0.000 A 
ENDBRANCH  35  37
ENDBRANCH  34  35
ENDBRANCH  12  34
ENDBRANCH   7  12
BRANCH   7  43
ATOM     43  O   UNL     1      -2.086   1.392   2.663  1.00  0.00    -0.385 OA
ATOM     44  H   UNL     1      -1.546   2.108   2.286  1.00  0.00    +0.211 HD
ENDBRANCH   7  43
ENDBRANCH   1   2
BRANCH   1  45
ATOM     45  C   UNL     1       2.595  -1.326   2.133  1.00  0.00    +0.338 C 
ATOM     46  O   UNL     1       2.695  -0.852   3.261  1.00  0.00    -0.249 OA
BRANCH  45  47
ATOM     47  C   UNL     1       3.809  -1.787   1.329  1.00  0.00    +0.251 C 
BRANCH  47  48
ATOM     48  C   UNL     1       3.889  -1.068  -0.042  1.00  0.00    +0.156 C 
BRANCH  48  49
ATOM     49  C   UNL     1       4.631  -1.910  -1.073  1.00  0.00    -0.022 A 
ATOM     50  C   UNL     1       3.971  -2.327  -2.240  1.00  0.00    +0.006 A 
ATOM     51  C   UNL     1       5.971  -2.292  -0.891  1.00  0.00    +0.006 A 
ATOM     52  C   UNL     1       4.631  -3.100  -3.197  1.00  0.00    +0.000 A 
ATOM     53  C   UNL     1       6.629  -3.065  -1.849  1.00  0.00    +0.000 A 
ATOM     54  C   UNL     1       5.960  -3.468  -3.001  1.00  0.00    +0.000 A 
ENDBRANCH  48  49
BRANCH  48  55
ATOM     55  N   UNL     1       4.522   0.243   0.062  1.00  0.00    -0.311 N 
ATOM     56  C   UNL     1       3.865   1.312   0.581  1.00  0.00    +0.408 C 
ATOM     57  O   UNL     1       2.655   1.374   0.730  1.00  0.00    -0.225 OA
ATOM     58  H   UNL     1       5.523   0.266   0.200  1.00  0.00    +0.167 HD
BRANCH  56  59
ATOM     59  O   UNL     1       4.767   2.257   0.920  1.00  0.00    -0.444 OA
BRANCH  59  60
ATOM     60  C   UNL     1       4.347   3.482   1.573  1.00  0.00    +0.106 C 
ATOM     61  C   UNL     1       3.686   3.193   2.926  1.00  0.00    +0.056 C 
ATOM     62  C   UNL     1       3.440   4.311   0.659  1.00  0.00    +0.056 C 
ATOM     63  C   UNL     1       5.647   4.263   1.817  1.00  0.00    +0.056 C 
ENDBRANCH  59  60
ENDBRANCH  56  59
ENDBRANCH  48  55
ENDBRANCH  47  48
BRANCH  47  64
ATOM     64  O   UNL     1       5.019  -1.570   2.087  1.00  0.00    -0.379 OA
ATOM     65  H   UNL     1       4.735  -1.389   3.007  1.00  0.00    +0.211 HD
ENDBRANCH  47  64
ENDBRANCH  45  47
ENDBRANCH   1  45
TORSDOF 17
