REMARK SMILES NC1(C(=O)N[C@@H](CCO)c2ccc(Cl)cc2)CCN(c2ncnc3[nH]ccc23)CC1
REMARK SMILES IDX 6 1 5 2 3 3 4 4 2 6 17 7 18 8 19 9 30 10 29 11 1 12 20 15
REMARK SMILES IDX 21 16 28 17 22 18 24 19 27 20 23 21 25 22 26 23 7 25 8 26
REMARK SMILES IDX 9 27 10 29 11 30 16 31 12 32 15 33 13 34 14 35
REMARK H PARENT 5 5 1 13 1 14 25 24 9 28
ROOT
ATOM      1  C   UNL     1       2.073  -0.362  -0.721  1.00  0.00    +0.114 C 
ENDROOT
BRANCH   1   2
ATOM      2  N   UNL     1       1.087  -1.010   0.131  1.00  0.00    -0.348 N 
ATOM      3  C   UNL     1       1.416  -1.717   1.259  1.00  0.00    +0.240 C 
ATOM      4  O   UNL     1       2.583  -1.934   1.591  1.00  0.00    -0.273 OA
ATOM      5  H   UNL     1       0.113  -0.726   0.029  1.00  0.00    +0.164 HD
BRANCH   3   6
ATOM      6  C   UNL     1       0.210  -2.251   2.114  1.00  0.00    +0.099 C 
ATOM      7  C   UNL     1      -0.634  -1.083   2.665  1.00  0.00    +0.054 C 
ATOM      8  C   UNL     1      -1.940  -0.879   1.894  1.00  0.00    +0.120 C 
ATOM      9  N   UNL     1      -1.694  -1.165   0.478  1.00  0.00    -0.356 N 
ATOM     10  C   UNL     1      -0.634  -3.252   1.309  1.00  0.00    +0.054 C 
ATOM     11  C   UNL     1      -1.494  -2.606   0.214  1.00  0.00    +0.120 C 
BRANCH   6  12
ATOM     12  N   UNL     1       0.797  -2.980   3.280  1.00  0.00    -0.317 NA
ATOM     13  H   UNL     1       1.443  -2.334   3.744  1.00  0.00    +0.119 HD
ATOM     14  H   UNL     1       1.432  -3.690   2.903  1.00  0.00    +0.119 HD
ENDBRANCH   6  12
BRANCH   9  15
ATOM     15  C   UNL     1      -2.593  -0.546  -0.410  1.00  0.00    +0.141 A 
ATOM     16  N   UNL     1      -3.258  -1.299  -1.328  1.00  0.00    -0.219 NA
ATOM     17  C   UNL     1      -2.791   0.855  -0.475  1.00  0.00    +0.061 A 
ATOM     18  C   UNL     1      -4.102  -0.705  -2.195  1.00  0.00    +0.226 A 
ATOM     19  C   UNL     1      -3.685   1.324  -1.427  1.00  0.00    +0.142 A 
ATOM     20  C   UNL     1      -2.275   2.012   0.184  1.00  0.00    +0.033 A 
ATOM     21  N   UNL     1      -4.382   0.600  -2.311  1.00  0.00    -0.218 NA
ATOM     22  N   UNL     1      -3.745   2.687  -1.333  1.00  0.00    -0.346 N 
ATOM     23  C   UNL     1      -2.884   3.124  -0.361  1.00  0.00    +0.085 A 
ATOM     24  H   UNL     1      -4.334   3.263  -1.917  1.00  0.00    +0.167 HD
ENDBRANCH   9  15
ENDBRANCH   3   6
ENDBRANCH   1   2
BRANCH   1  25
ATOM     25  C   UNL     1       1.706  -0.597  -2.200  1.00  0.00    +0.058 C 
BRANCH  25  26
ATOM     26  C   UNL     1       2.736  -0.043  -3.178  1.00  0.00    +0.158 C 
BRANCH  26  27
ATOM     27  O   UNL     1       3.987  -0.684  -2.982  1.00  0.00    -0.396 OA
ATOM     28  H   UNL     1       4.612  -0.299  -3.620  1.00  0.00    +0.210 HD
ENDBRANCH  26  27
ENDBRANCH  25  26
ENDBRANCH   1  25
BRANCH   1  29
ATOM     29  C   UNL     1       2.173   1.102  -0.313  1.00  0.00    -0.025 A 
ATOM     30  C   UNL     1       1.232   2.061  -0.721  1.00  0.00    +0.007 A 
ATOM     31  C   UNL     1       3.209   1.504   0.547  1.00  0.00    +0.007 A 
ATOM     32  C   UNL     1       1.340   3.389  -0.303  1.00  0.00    +0.021 A 
ATOM     33  C   UNL     1       3.317   2.832   0.967  1.00  0.00    +0.021 A 
ATOM     34  C   UNL     1       2.382   3.769   0.538  1.00  0.00    +0.041 A 
ATOM     35 Cl   UNL     1       2.508   5.405   1.056  1.00  0.00    -0.084 Cl
ENDBRANCH   1  29
TORSDOF 8
