REMARK SMILES NC1(C(=O)N[C@@H](CCO)c2ccc(Cl)cc2)CCN(c2ncnc3[nH]ccc23)CC1
REMARK SMILES IDX 6 1 5 2 3 3 4 4 2 6 17 7 18 8 19 9 30 10 29 11 1 12 20 15
REMARK SMILES IDX 21 16 28 17 22 18 24 19 27 20 23 21 25 22 26 23 7 25 8 26
REMARK SMILES IDX 9 27 10 29 11 30 16 31 12 32 15 33 13 34 14 35
REMARK H PARENT 5 5 1 13 1 14 25 24 9 28
ROOT
ATOM      1  C   UNL     1      -3.569  -0.773   0.176  1.00  0.00    +0.114 C 
ENDROOT
BRANCH   1   2
ATOM      2  N   UNL     1      -2.173  -0.572  -0.173  1.00  0.00    -0.348 N 
ATOM      3  C   UNL     1      -1.272   0.168   0.572  1.00  0.00    +0.240 C 
ATOM      4  O   UNL     1      -1.488   0.581   1.704  1.00  0.00    -0.273 OA
ATOM      5  H   UNL     1      -1.941  -0.561  -1.165  1.00  0.00    +0.164 HD
BRANCH   3   6
ATOM      6  C   UNL     1       0.073   0.387  -0.188  1.00  0.00    +0.099 C 
ATOM      7  C   UNL     1       0.878   1.514   0.480  1.00  0.00    +0.054 C 
ATOM      8  C   UNL     1       2.303   1.612  -0.057  1.00  0.00    +0.120 C 
ATOM      9  N   UNL     1       2.964   0.308   0.078  1.00  0.00    -0.356 N 
ATOM     10  C   UNL     1       0.865  -0.932  -0.139  1.00  0.00    +0.054 C 
ATOM     11  C   UNL     1       2.296  -0.780  -0.648  1.00  0.00    +0.120 C 
BRANCH   6  12
ATOM     12  N   UNL     1      -0.275   0.720  -1.605  1.00  0.00    -0.317 NA
ATOM     13  H   UNL     1       0.580   0.912  -2.129  1.00  0.00    +0.119 HD
ATOM     14  H   UNL     1      -0.789   1.606  -1.603  1.00  0.00    +0.119 HD
ENDBRANCH   6  12
BRANCH   9  15
ATOM     15  C   UNL     1       4.332   0.364  -0.265  1.00  0.00    +0.141 A 
ATOM     16  N   UNL     1       4.803   1.360  -1.064  1.00  0.00    -0.219 NA
ATOM     17  C   UNL     1       5.267  -0.580   0.209  1.00  0.00    +0.061 A 
ATOM     18  C   UNL     1       6.114   1.385  -1.376  1.00  0.00    +0.226 A 
ATOM     19  C   UNL     1       6.583  -0.427  -0.199  1.00  0.00    +0.142 A 
ATOM     20  C   UNL     1       5.241  -1.719   1.067  1.00  0.00    +0.033 A 
ATOM     21  N   UNL     1       7.076   0.528  -0.998  1.00  0.00    -0.218 NA
ATOM     22  N   UNL     1       7.326  -1.431   0.362  1.00  0.00    -0.346 N 
ATOM     23  C   UNL     1       6.522  -2.226   1.137  1.00  0.00    +0.085 A 
ATOM     24  H   UNL     1       8.319  -1.538   0.220  1.00  0.00    +0.167 HD
ENDBRANCH   9  15
ENDBRANCH   3   6
ENDBRANCH   1   2
BRANCH   1  25
ATOM     25  C   UNL     1      -3.812  -1.382   1.569  1.00  0.00    +0.058 C 
BRANCH  25  26
ATOM     26  C   UNL     1      -3.165  -2.755   1.716  1.00  0.00    +0.158 C 
BRANCH  26  27
ATOM     27  O   UNL     1      -3.480  -3.318   2.985  1.00  0.00    -0.396 OA
ATOM     28  H   UNL     1      -4.447  -3.317   3.083  1.00  0.00    +0.210 HD
ENDBRANCH  26  27
ENDBRANCH  25  26
ENDBRANCH   1  25
BRANCH   1  29
ATOM     29  C   UNL     1      -4.376   0.488  -0.102  1.00  0.00    -0.025 A 
ATOM     30  C   UNL     1      -5.023   0.641  -1.341  1.00  0.00    +0.007 A 
ATOM     31  C   UNL     1      -4.464   1.535   0.830  1.00  0.00    +0.007 A 
ATOM     32  C   UNL     1      -5.753   1.798  -1.630  1.00  0.00    +0.021 A 
ATOM     33  C   UNL     1      -5.192   2.692   0.542  1.00  0.00    +0.021 A 
ATOM     34  C   UNL     1      -5.836   2.818  -0.686  1.00  0.00    +0.041 A 
ATOM     35 Cl   UNL     1      -6.731   4.243  -1.043  1.00  0.00    -0.084 Cl
ENDBRANCH   1  29
TORSDOF 8
