REMARK SMILES NC1(C(=O)N[C@@H](CCO)c2ccc(Cl)cc2)CCN(c2ncnc3[nH]ccc23)CC1
REMARK SMILES IDX 6 1 5 2 3 3 4 4 2 6 17 7 18 8 19 9 30 10 29 11 1 12 20 15
REMARK SMILES IDX 21 16 28 17 22 18 24 19 27 20 23 21 25 22 26 23 7 25 8 26
REMARK SMILES IDX 9 27 10 29 11 30 16 31 12 32 15 33 13 34 14 35
REMARK H PARENT 5 5 1 13 1 14 25 24 9 28
ROOT
ATOM      1  C   UNL     1       3.222  -0.489   1.126  1.00  0.00    +0.114 C 
ENDROOT
BRANCH   1   2
ATOM      2  N   UNL     1       1.888  -0.521   0.552  1.00  0.00    -0.348 N 
ATOM      3  C   UNL     1       1.001   0.528   0.719  1.00  0.00    +0.240 C 
ATOM      4  O   UNL     1       1.178   1.443   1.517  1.00  0.00    -0.273 OA
ATOM      5  H   UNL     1       1.755  -1.014  -0.328  1.00  0.00    +0.164 HD
BRANCH   3   6
ATOM      6  C   UNL     1      -0.250   0.397  -0.200  1.00  0.00    +0.099 C 
ATOM      7  C   UNL     1      -1.008   1.736  -0.248  1.00  0.00    +0.054 C 
ATOM      8  C   UNL     1      -2.370   1.613  -0.925  1.00  0.00    +0.120 C 
ATOM      9  N   UNL     1      -3.151   0.561  -0.261  1.00  0.00    -0.356 N 
ATOM     10  C   UNL     1      -1.156  -0.704   0.380  1.00  0.00    +0.054 C 
ATOM     11  C   UNL     1      -2.521  -0.765  -0.301  1.00  0.00    +0.120 C 
BRANCH   6  12
ATOM     12  N   UNL     1       0.241  -0.008  -1.553  1.00  0.00    -0.317 NA
ATOM     13  H   UNL     1      -0.544  -0.053  -2.203  1.00  0.00    +0.119 HD
ATOM     14  H   UNL     1       0.841   0.741  -1.909  1.00  0.00    +0.119 HD
ENDBRANCH   6  12
BRANCH   9  15
ATOM     15  C   UNL     1      -4.476   0.494  -0.742  1.00  0.00    +0.141 A 
ATOM     16  N   UNL     1      -4.793   1.005  -1.962  1.00  0.00    -0.219 NA
ATOM     17  C   UNL     1      -5.524  -0.076   0.012  1.00  0.00    +0.061 A 
ATOM     18  C   UNL     1      -6.067   0.923  -2.396  1.00  0.00    +0.226 A 
ATOM     19  C   UNL     1      -6.784  -0.089  -0.566  1.00  0.00    +0.142 A 
ATOM     20  C   UNL     1      -5.666  -0.667   1.302  1.00  0.00    +0.033 A 
ATOM     21  N   UNL     1      -7.127   0.386  -1.771  1.00  0.00    -0.218 NA
ATOM     22  N   UNL     1      -7.653  -0.677   0.312  1.00  0.00    -0.346 N 
ATOM     23  C   UNL     1      -6.986  -1.034   1.457  1.00  0.00    +0.085 A 
ATOM     24  H   UNL     1      -8.637  -0.805   0.126  1.00  0.00    +0.167 HD
ENDBRANCH   9  15
ENDBRANCH   3   6
ENDBRANCH   1   2
BRANCH   1  25
ATOM     25  C   UNL     1       3.680  -1.914   1.469  1.00  0.00    +0.058 C 
BRANCH  25  26
ATOM     26  C   UNL     1       5.006  -1.941   2.218  1.00  0.00    +0.158 C 
BRANCH  26  27
ATOM     27  O   UNL     1       5.323  -3.292   2.533  1.00  0.00    -0.396 OA
ATOM     28  H   UNL     1       6.165  -3.281   3.020  1.00  0.00    +0.210 HD
ENDBRANCH  26  27
ENDBRANCH  25  26
ENDBRANCH   1  25
BRANCH   1  29
ATOM     29  C   UNL     1       4.153   0.257   0.178  1.00  0.00    -0.025 A 
ATOM     30  C   UNL     1       4.504   1.587   0.462  1.00  0.00    +0.007 A 
ATOM     31  C   UNL     1       4.635  -0.327  -1.005  1.00  0.00    +0.007 A 
ATOM     32  C   UNL     1       5.338   2.306  -0.398  1.00  0.00    +0.021 A 
ATOM     33  C   UNL     1       5.471   0.391  -1.865  1.00  0.00    +0.021 A 
ATOM     34  C   UNL     1       5.821   1.703  -1.556  1.00  0.00    +0.041 A 
ATOM     35 Cl   UNL     1       6.846   2.587  -2.618  1.00  0.00    -0.084 Cl
ENDBRANCH   1  29
TORSDOF 8
