REMARK SMILES NC1(C(=O)N[C@@H](CCO)c2ccc(Cl)cc2)CCN(c2ncnc3[nH]ccc23)CC1
REMARK SMILES IDX 6 1 5 2 3 3 4 4 2 6 17 7 18 8 19 9 30 10 29 11 1 12 20 15
REMARK SMILES IDX 21 16 28 17 22 18 24 19 27 20 23 21 25 22 26 23 7 25 8 26
REMARK SMILES IDX 9 27 10 29 11 30 16 31 12 32 15 33 13 34 14 35
REMARK H PARENT 5 5 1 13 1 14 25 24 9 28
ROOT
ATOM      1  C   UNL     1      -2.160   0.484   0.312  1.00  0.00    +0.114 C 
ENDROOT
BRANCH   1   2
ATOM      2  N   UNL     1      -1.110  -0.401   0.789  1.00  0.00    -0.348 N 
ATOM      3  C   UNL     1      -1.346  -1.677   1.233  1.00  0.00    +0.240 C 
ATOM      4  O   UNL     1      -2.482  -2.140   1.351  1.00  0.00    -0.273 OA
ATOM      5  H   UNL     1      -0.148  -0.172   0.541  1.00  0.00    +0.164 HD
BRANCH   3   6
ATOM      6  C   UNL     1      -0.072  -2.528   1.589  1.00  0.00    +0.099 C 
ATOM      7  C   UNL     1       0.702  -1.898   2.757  1.00  0.00    +0.054 C 
ATOM      8  C   UNL     1       1.467  -0.620   2.384  1.00  0.00    +0.120 C 
ATOM      9  N   UNL     1       1.663  -0.529   0.922  1.00  0.00    -0.356 N 
ATOM     10  C   UNL     1       0.816  -2.735   0.344  1.00  0.00    +0.054 C 
ATOM     11  C   UNL     1       2.037  -1.813   0.322  1.00  0.00    +0.120 C 
BRANCH   6  12
ATOM     12  N   UNL     1      -0.559  -3.869   2.031  1.00  0.00    -0.317 NA
ATOM     13  H   UNL     1      -1.165  -4.231   1.288  1.00  0.00    +0.119 HD
ATOM     14  H   UNL     1      -1.223  -3.713   2.796  1.00  0.00    +0.119 HD
ENDBRANCH   6  12
BRANCH   9  15
ATOM     15  C   UNL     1       2.464   0.557   0.523  1.00  0.00    +0.141 A 
ATOM     16  N   UNL     1       3.074   1.327   1.464  1.00  0.00    -0.219 NA
ATOM     17  C   UNL     1       2.601   0.968  -0.824  1.00  0.00    +0.061 A 
ATOM     18  C   UNL     1       3.820   2.381   1.081  1.00  0.00    +0.226 A 
ATOM     19  C   UNL     1       3.392   2.082  -1.067  1.00  0.00    +0.142 A 
ATOM     20  C   UNL     1       2.098   0.557  -2.095  1.00  0.00    +0.033 A 
ATOM     21  N   UNL     1       4.040   2.829  -0.164  1.00  0.00    -0.218 NA
ATOM     22  N   UNL     1       3.408   2.319  -2.414  1.00  0.00    -0.346 N 
ATOM     23  C   UNL     1       2.615   1.403  -3.054  1.00  0.00    +0.085 A 
ATOM     24  H   UNL     1       3.922   3.074  -2.844  1.00  0.00    +0.167 HD
ENDBRANCH   9  15
ENDBRANCH   3   6
ENDBRANCH   1   2
BRANCH   1  25
ATOM     25  C   UNL     1      -1.882   1.934   0.760  1.00  0.00    +0.058 C 
BRANCH  25  26
ATOM     26  C   UNL     1      -2.092   2.135   2.257  1.00  0.00    +0.158 C 
BRANCH  26  27
ATOM     27  O   UNL     1      -3.470   2.036   2.591  1.00  0.00    -0.396 OA
ATOM     28  H   UNL     1      -3.933   2.780   2.169  1.00  0.00    +0.210 HD
ENDBRANCH  26  27
ENDBRANCH  25  26
ENDBRANCH   1  25
BRANCH   1  29
ATOM     29  C   UNL     1      -2.272   0.330  -1.201  1.00  0.00    -0.025 A 
ATOM     30  C   UNL     1      -3.150  -0.637  -1.724  1.00  0.00    +0.007 A 
ATOM     31  C   UNL     1      -1.492   1.076  -2.099  1.00  0.00    +0.007 A 
ATOM     32  C   UNL     1      -3.261  -0.837  -3.102  1.00  0.00    +0.021 A 
ATOM     33  C   UNL     1      -1.603   0.878  -3.478  1.00  0.00    +0.021 A 
ATOM     34  C   UNL     1      -2.487  -0.076  -3.973  1.00  0.00    +0.041 A 
ATOM     35 Cl   UNL     1      -2.615  -0.323  -5.671  1.00  0.00    -0.084 Cl
ENDBRANCH   1  29
TORSDOF 8
