REMARK SMILES NC[C@H](c1ccc(Cl)cc1)c1c[nH]c2nccc(-c3ccc(C4CC4)cc3)c12
REMARK SMILES IDX 3 1 2 2 1 3 4 6 5 7 10 8 6 9 9 10 7 11 8 12 11 13 12 14
REMARK SMILES IDX 28 15 13 16 18 17 14 18 17 19 15 20 16 21 19 23 20 24 27 25
REMARK SMILES IDX 21 26 26 27 22 28 23 29 24 30 25 31
REMARK H PARENT 1 4 1 5 13 22
ROOT
ATOM      1  C   UNL     1      -1.365   0.034   0.330  1.00  0.00    +0.065 C 
ENDROOT
BRANCH   1   2
ATOM      2  C   UNL     1      -1.485  -0.821   1.615  1.00  0.00    +0.090 C 
BRANCH   2   3
ATOM      3  N   UNL     1      -2.747  -1.557   1.683  1.00  0.00    -0.330 NA
ATOM      4  H   UNL     1      -2.672  -2.401   1.070  1.00  0.00    +0.118 HD
ATOM      5  H   UNL     1      -2.854  -1.917   2.659  1.00  0.00    +0.118 HD
ENDBRANCH   2   3
ENDBRANCH   1   2
BRANCH   1   6
ATOM      6  C   UNL     1      -2.103   1.365   0.396  1.00  0.00    -0.039 A 
ATOM      7  C   UNL     1      -3.380   1.494   0.981  1.00  0.00    +0.006 A 
ATOM      8  C   UNL     1      -1.521   2.497  -0.208  1.00  0.00    +0.006 A 
ATOM      9  C   UNL     1      -4.036   2.729   0.987  1.00  0.00    +0.021 A 
ATOM     10  C   UNL     1      -2.181   3.728  -0.199  1.00  0.00    +0.021 A 
ATOM     11  C   UNL     1      -3.437   3.847   0.401  1.00  0.00    +0.041 A 
ATOM     12 Cl   UNL     1      -4.265   5.393   0.408  1.00  0.00    -0.084 Cl
ENDBRANCH   1   6
BRANCH   1  13
ATOM     13  C   UNL     1      -1.737  -0.742  -0.918  1.00  0.00    -0.012 A 
ATOM     14  C   UNL     1      -3.032  -0.889  -1.422  1.00  0.00    +0.089 A 
ATOM     15  C   UNL     1      -0.939  -1.581  -1.700  1.00  0.00    +0.030 A 
ATOM     16  N   UNL     1      -3.051  -1.752  -2.459  1.00  0.00    -0.346 N 
ATOM     17  C   UNL     1       0.429  -1.915  -1.696  1.00  0.00    -0.006 A 
ATOM     18  C   UNL     1      -1.785  -2.165  -2.611  1.00  0.00    +0.138 A 
ATOM     19  C   UNL     1       0.867  -2.865  -2.640  1.00  0.00    +0.029 A 
ATOM     20  N   UNL     1      -1.363  -3.079  -3.518  1.00  0.00    -0.239 NA
ATOM     21  C   UNL     1      -0.048  -3.437  -3.545  1.00  0.00    +0.114 A 
ATOM     22  H   UNL     1      -3.885  -2.057  -3.007  1.00  0.00    +0.167 HD
BRANCH  17  23
ATOM     23  C   UNL     1       1.411  -1.289  -0.800  1.00  0.00    -0.018 A 
ATOM     24  C   UNL     1       1.935  -0.027  -1.107  1.00  0.00    +0.009 A 
ATOM     25  C   UNL     1       1.849  -1.961   0.345  1.00  0.00    +0.009 A 
ATOM     26  C   UNL     1       2.863   0.576  -0.253  1.00  0.00    +0.004 A 
ATOM     27  C   UNL     1       2.777  -1.361   1.200  1.00  0.00    +0.004 A 
ATOM     28  C   UNL     1       3.294  -0.085   0.919  1.00  0.00    -0.045 A 
BRANCH  28  29
ATOM     29  C   UNL     1       4.290   0.505   1.903  1.00  0.00    +0.019 C 
ATOM     30  C   UNL     1       5.393   1.390   1.339  1.00  0.00    +0.009 C 
ATOM     31  C   UNL     1       4.242   2.011   2.120  1.00  0.00    +0.009 C 
ENDBRANCH  28  29
ENDBRANCH  17  23
ENDBRANCH   1  13
TORSDOF 6
