REMARK SMILES NC1(C(=O)N[C@@H](CCO)c2ccc(Cl)cc2)CCN(c2ncnc3[nH]ccc23)CC1
REMARK SMILES IDX 6 1 5 2 3 3 4 4 2 6 17 7 18 8 19 9 30 10 29 11 1 12 20 15
REMARK SMILES IDX 21 16 28 17 22 18 24 19 27 20 23 21 25 22 26 23 7 25 8 26
REMARK SMILES IDX 9 27 10 29 11 30 16 31 12 32 15 33 13 34 14 35
REMARK H PARENT 5 5 1 13 1 14 25 24 9 28
ROOT
ATOM      1  C   UNL     1      -2.182   0.208   0.407  1.00  0.00    +0.114 C 
ENDROOT
BRANCH   1   2
ATOM      2  N   UNL     1      -1.231  -0.892   0.300  1.00  0.00    -0.348 N 
ATOM      3  C   UNL     1      -1.590  -2.153  -0.102  1.00  0.00    +0.240 C 
ATOM      4  O   UNL     1      -2.751  -2.441  -0.402  1.00  0.00    -0.273 OA
ATOM      5  H   UNL     1      -0.232  -0.682   0.352  1.00  0.00    +0.164 HD
BRANCH   3   6
ATOM      6  C   UNL     1      -0.438  -3.221  -0.167  1.00  0.00    +0.099 C 
ATOM      7  C   UNL     1       0.399  -3.052  -1.438  1.00  0.00    +0.054 C 
ATOM      8  C   UNL     1       1.213  -1.756  -1.450  1.00  0.00    +0.120 C 
ATOM      9  N   UNL     1       1.518  -1.290  -0.082  1.00  0.00    -0.356 N 
ATOM     10  C   UNL     1       0.447  -3.178   1.090  1.00  0.00    +0.054 C 
ATOM     11  C   UNL     1       1.735  -2.373   0.890  1.00  0.00    +0.120 C 
BRANCH   6  12
ATOM     12  N   UNL     1      -1.095  -4.561  -0.218  1.00  0.00    -0.317 NA
ATOM     13  H   UNL     1      -1.679  -4.656   0.616  1.00  0.00    +0.119 HD
ATOM     14  H   UNL     1      -1.784  -4.528  -0.977  1.00  0.00    +0.119 HD
ENDBRANCH   6  12
BRANCH   9  15
ATOM     15  C   UNL     1       2.555  -0.322  -0.067  1.00  0.00    +0.141 A 
ATOM     16  N   UNL     1       3.619  -0.504   0.765  1.00  0.00    -0.219 NA
ATOM     17  C   UNL     1       2.548   0.872  -0.832  1.00  0.00    +0.061 A 
ATOM     18  C   UNL     1       4.607   0.410   0.803  1.00  0.00    +0.226 A 
ATOM     19  C   UNL     1       3.634   1.724  -0.681  1.00  0.00    +0.142 A 
ATOM     20  C   UNL     1       1.674   1.519  -1.758  1.00  0.00    +0.033 A 
ATOM     21  N   UNL     1       4.700   1.552   0.111  1.00  0.00    -0.218 NA
ATOM     22  N   UNL     1       3.449   2.817  -1.483  1.00  0.00    -0.346 N 
ATOM     23  C   UNL     1       2.259   2.706  -2.149  1.00  0.00    +0.085 A 
ATOM     24  H   UNL     1       4.100   3.587  -1.540  1.00  0.00    +0.167 HD
ENDBRANCH   9  15
ENDBRANCH   3   6
ENDBRANCH   1   2
BRANCH   1  25
ATOM     25  C   UNL     1      -3.111   0.019   1.625  1.00  0.00    +0.058 C 
BRANCH  25  26
ATOM     26  C   UNL     1      -4.275   1.004   1.654  1.00  0.00    +0.158 C 
BRANCH  26  27
ATOM     27  O   UNL     1      -5.061   0.900   0.475  1.00  0.00    -0.396 OA
ATOM     28  H   UNL     1      -5.362  -0.024   0.401  1.00  0.00    +0.210 HD
ENDBRANCH  26  27
ENDBRANCH  25  26
ENDBRANCH   1  25
BRANCH   1  29
ATOM     29  C   UNL     1      -1.439   1.534   0.467  1.00  0.00    -0.025 A 
ATOM     30  C   UNL     1      -0.429   1.770   1.417  1.00  0.00    +0.007 A 
ATOM     31  C   UNL     1      -1.768   2.560  -0.433  1.00  0.00    +0.007 A 
ATOM     32  C   UNL     1       0.250   2.990   1.448  1.00  0.00    +0.021 A 
ATOM     33  C   UNL     1      -1.094   3.782  -0.398  1.00  0.00    +0.021 A 
ATOM     34  C   UNL     1      -0.083   3.989   0.537  1.00  0.00    +0.041 A 
ATOM     35 Cl   UNL     1       0.767   5.485   0.560  1.00  0.00    -0.084 Cl
ENDBRANCH   1  29
TORSDOF 8
