REMARK SMILES O=C(c1ccc(F)c(F)c1Nc1ccc(I)cc1F)N1CC(O)([C@@H]2CCCCN2)C1
REMARK SMILES IDX 3 1 10 2 8 3 6 4 5 5 4 6 7 7 9 8 2 9 22 10 21 11 30 12 20 13
REMARK SMILES IDX 1 14 24 15 26 16 27 17 25 18 28 19 29 20 23 22 11 24 12 26
REMARK SMILES IDX 18 27 13 28 17 29 14 30 15 31 19 32 16 33
REMARK H PARENT 29 21 23 23 11 25
ROOT
ATOM      1  C   UNL     1       1.580  -1.506   1.510  1.00  0.00    +0.066 A 
ATOM      2  C   UNL     1       2.900  -1.356   1.024  1.00  0.00    +0.091 A 
ATOM      3  C   UNL     1       3.588  -2.521   0.643  1.00  0.00    +0.183 A 
ATOM      4  C   UNL     1       3.001  -3.778   0.765  1.00  0.00    +0.161 A 
ATOM      5  C   UNL     1       1.714  -3.917   1.269  1.00  0.00    +0.043 A 
ATOM      6  C   UNL     1       1.002  -2.781   1.649  1.00  0.00    +0.019 A 
ATOM      7  F   UNL     1       3.683  -4.876   0.409  1.00  0.00    -0.204 F 
ATOM      8  F   UNL     1       4.850  -2.444   0.192  1.00  0.00    -0.201 F 
ENDROOT
BRANCH   1   9
ATOM      9  C   UNL     1       0.804  -0.300   1.909  1.00  0.00    +0.256 C 
ATOM     10  C   UNL     1      -2.346   0.216   0.698  1.00  0.00    +0.115 C 
ATOM     11  C   UNL     1      -1.344   0.959   1.623  1.00  0.00    +0.158 C 
ATOM     12  C   UNL     1      -1.169  -0.740   0.360  1.00  0.00    +0.158 C 
ATOM     13  N   UNL     1      -0.544  -0.273   1.605  1.00  0.00    -0.333 N 
ATOM     14  O   UNL     1       1.379   0.626   2.477  1.00  0.00    -0.269 OA
BRANCH  10  15
ATOM     15  C   UNL     1      -2.819   1.055  -0.517  1.00  0.00    +0.089 C 
ATOM     16  C   UNL     1      -5.259   1.665   0.012  1.00  0.00    +0.003 C 
ATOM     17  C   UNL     1      -5.662   0.807  -1.180  1.00  0.00    +0.015 C 
ATOM     18  C   UNL     1      -3.820   2.157  -0.128  1.00  0.00    +0.022 C 
ATOM     19  C   UNL     1      -4.646  -0.299  -1.443  1.00  0.00    +0.081 C 
ATOM     20  N   UNL     1      -3.295   0.231  -1.650  1.00  0.00    -0.311 NA
ATOM     21  H   UNL     1      -3.325   0.825  -2.481  1.00  0.00    +0.123 HD
ENDBRANCH  10  15
BRANCH  10  22
ATOM     22  O   UNL     1      -3.460  -0.407   1.400  1.00  0.00    -0.385 OA
ATOM     23  H   UNL     1      -3.042  -0.909   2.122  1.00  0.00    +0.211 HD
ENDBRANCH  10  22
ENDBRANCH   1   9
BRANCH   2  24
ATOM     24  N   UNL     1       3.480  -0.073   0.884  1.00  0.00    -0.350 N 
ATOM     25  H   UNL     1       3.058   0.623   1.507  1.00  0.00    +0.167 HD
BRANCH  24  26
ATOM     26  C   UNL     1       4.151   0.500  -0.215  1.00  0.00    +0.075 A 
ATOM     27  C   UNL     1       4.130  -0.021  -1.519  1.00  0.00    +0.147 A 
ATOM     28  C   UNL     1       4.941   1.637   0.017  1.00  0.00    +0.030 A 
ATOM     29  C   UNL     1       4.855   0.564  -2.556  1.00  0.00    +0.056 A 
ATOM     30  C   UNL     1       5.673   2.233  -1.016  1.00  0.00    +0.017 A 
ATOM     31  C   UNL     1       5.627   1.691  -2.299  1.00  0.00    +0.016 A 
ATOM     32  F   UNL     1       3.356  -1.076  -1.821  1.00  0.00    -0.205 F 
ATOM     33  I   UNL     1       6.712   2.574  -3.835  1.00  0.00    -0.044 I 
ENDBRANCH  24  26
ENDBRANCH   2  24
TORSDOF 5
