REMARK SMILES O=C(c1ccc(F)c(F)c1Nc1ccc(I)cc1F)N1CC(O)([C@@H]2CCCCN2)C1
REMARK SMILES IDX 3 1 10 2 8 3 6 4 5 5 4 6 7 7 9 8 2 9 22 10 21 11 30 12 20 13
REMARK SMILES IDX 1 14 24 15 26 16 27 17 25 18 28 19 29 20 23 22 11 24 12 26
REMARK SMILES IDX 18 27 13 28 17 29 14 30 15 31 19 32 16 33
REMARK H PARENT 29 21 23 23 11 25
ROOT
ATOM      1  C   UNL     1       1.706   2.065  -0.260  1.00  0.00    +0.066 A 
ATOM      2  C   UNL     1       2.910   1.401   0.083  1.00  0.00    +0.091 A 
ATOM      3  C   UNL     1       3.700   1.995   1.080  1.00  0.00    +0.183 A 
ATOM      4  C   UNL     1       3.321   3.190   1.692  1.00  0.00    +0.161 A 
ATOM      5  C   UNL     1       2.146   3.837   1.334  1.00  0.00    +0.043 A 
ATOM      6  C   UNL     1       1.337   3.279   0.349  1.00  0.00    +0.019 A 
ATOM      7  F   UNL     1       4.102   3.736   2.634  1.00  0.00    -0.204 F 
ATOM      8  F   UNL     1       4.877   1.457   1.437  1.00  0.00    -0.201 F 
ENDROOT
BRANCH   1   9
ATOM      9  C   UNL     1       0.827   1.495  -1.316  1.00  0.00    +0.256 C 
ATOM     10  C   UNL     1      -2.462   0.869  -0.658  1.00  0.00    +0.115 C 
ATOM     11  C   UNL     1      -1.213   1.238   0.189  1.00  0.00    +0.158 C 
ATOM     12  C   UNL     1      -1.479   0.665  -1.840  1.00  0.00    +0.158 C 
ATOM     13  N   UNL     1      -0.534   1.497  -1.085  1.00  0.00    -0.333 N 
ATOM     14  O   UNL     1       1.334   1.044  -2.340  1.00  0.00    -0.269 OA
BRANCH  10  15
ATOM     15  C   UNL     1      -3.183  -0.405  -0.165  1.00  0.00    +0.089 C 
ATOM     16  C   UNL     1      -4.771  -2.266  -0.810  1.00  0.00    +0.003 C 
ATOM     17  C   UNL     1      -4.900  -2.372   0.709  1.00  0.00    +0.015 C 
ATOM     18  C   UNL     1      -4.123  -0.952  -1.248  1.00  0.00    +0.022 C 
ATOM     19  C   UNL     1      -5.048  -0.996   1.347  1.00  0.00    +0.081 C 
ATOM     20  N   UNL     1      -3.909  -0.109   1.090  1.00  0.00    -0.311 NA
ATOM     21  H   UNL     1      -4.276   0.847   1.011  1.00  0.00    +0.123 HD
ENDBRANCH  10  15
BRANCH  10  22
ATOM     22  O   UNL     1      -3.430   1.951  -0.821  1.00  0.00    -0.385 OA
ATOM     23  H   UNL     1      -2.907   2.691  -1.178  1.00  0.00    +0.211 HD
ENDBRANCH  10  22
ENDBRANCH   1   9
BRANCH   2  24
ATOM     24  N   UNL     1       3.228   0.169  -0.531  1.00  0.00    -0.350 N 
ATOM     25  H   UNL     1       2.905   0.113  -1.506  1.00  0.00    +0.167 HD
BRANCH  24  26
ATOM     26  C   UNL     1       3.983  -0.950  -0.137  1.00  0.00    +0.075 A 
ATOM     27  C   UNL     1       4.510  -1.800  -1.125  1.00  0.00    +0.147 A 
ATOM     28  C   UNL     1       4.257  -1.266   1.196  1.00  0.00    +0.030 A 
ATOM     29  C   UNL     1       5.281  -2.917  -0.814  1.00  0.00    +0.056 A 
ATOM     30  C   UNL     1       5.032  -2.385   1.528  1.00  0.00    +0.017 A 
ATOM     31  C   UNL     1       5.542  -3.204   0.521  1.00  0.00    +0.016 A 
ATOM     32  F   UNL     1       4.262  -1.535  -2.418  1.00  0.00    -0.205 F 
ATOM     33  I   UNL     1       6.689  -4.863   1.017  1.00  0.00    -0.044 I 
ENDBRANCH  24  26
ENDBRANCH   2  24
TORSDOF 5
