REMARK SMILES O=C(c1ccc(F)c(F)c1Nc1ccc(I)cc1F)N1CC(O)([C@@H]2CCCCN2)C1
REMARK SMILES IDX 3 1 10 2 8 3 6 4 5 5 4 6 7 7 9 8 2 9 22 10 21 11 30 12 20 13
REMARK SMILES IDX 1 14 24 15 26 16 27 17 25 18 28 19 29 20 23 22 11 24 12 26
REMARK SMILES IDX 18 27 13 28 17 29 14 30 15 31 19 32 16 33
REMARK H PARENT 29 21 23 23 11 25
ROOT
ATOM      1  C   UNL     1       1.463  -1.795  -1.663  1.00  0.00    +0.066 A 
ATOM      2  C   UNL     1       2.778  -1.304  -1.493  1.00  0.00    +0.091 A 
ATOM      3  C   UNL     1       3.497  -0.959  -2.651  1.00  0.00    +0.183 A 
ATOM      4  C   UNL     1       2.944  -1.119  -3.919  1.00  0.00    +0.161 A 
ATOM      5  C   UNL     1       1.662  -1.629  -4.077  1.00  0.00    +0.043 A 
ATOM      6  C   UNL     1       0.920  -1.975  -2.948  1.00  0.00    +0.019 A 
ATOM      7  F   UNL     1       3.656  -0.797  -5.008  1.00  0.00    -0.204 F 
ATOM      8  F   UNL     1       4.758  -0.504  -2.554  1.00  0.00    -0.201 F 
ENDROOT
BRANCH   1   9
ATOM      9  C   UNL     1       0.654  -2.159  -0.468  1.00  0.00    +0.256 C 
ATOM     10  C   UNL     1      -2.502  -0.919  -0.055  1.00  0.00    +0.115 C 
ATOM     11  C   UNL     1      -1.552  -1.889   0.692  1.00  0.00    +0.158 C 
ATOM     12  C   UNL     1      -1.324  -0.656  -1.031  1.00  0.00    +0.158 C 
ATOM     13  N   UNL     1      -0.693  -1.863  -0.490  1.00  0.00    -0.333 N 
ATOM     14  O   UNL     1       1.205  -2.691   0.495  1.00  0.00    -0.269 OA
BRANCH  10  15
ATOM     15  C   UNL     1      -2.912   0.338   0.752  1.00  0.00    +0.089 C 
ATOM     16  C   UNL     1      -4.316   1.179   2.684  1.00  0.00    +0.003 C 
ATOM     17  C   UNL     1      -4.948   2.183   1.728  1.00  0.00    +0.015 C 
ATOM     18  C   UNL     1      -3.834  -0.052   1.922  1.00  0.00    +0.022 C 
ATOM     19  C   UNL     1      -4.005   2.507   0.573  1.00  0.00    +0.081 C 
ATOM     20  N   UNL     1      -3.574   1.307  -0.142  1.00  0.00    -0.311 NA
ATOM     21  H   UNL     1      -4.382   0.847  -0.569  1.00  0.00    +0.123 HD
ENDBRANCH  10  15
BRANCH  10  22
ATOM     22  O   UNL     1      -3.674  -1.528  -0.682  1.00  0.00    -0.385 OA
ATOM     23  H   UNL     1      -4.073  -2.084   0.008  1.00  0.00    +0.211 HD
ENDBRANCH  10  22
ENDBRANCH   1   9
BRANCH   2  24
ATOM     24  N   UNL     1       3.325  -1.126  -0.200  1.00  0.00    -0.350 N 
ATOM     25  H   UNL     1       2.880  -1.725   0.503  1.00  0.00    +0.167 HD
BRANCH  24  26
ATOM     26  C   UNL     1       3.983  -0.010   0.358  1.00  0.00    +0.075 A 
ATOM     27  C   UNL     1       3.978   1.276  -0.203  1.00  0.00    +0.147 A 
ATOM     28  C   UNL     1       4.741  -0.209   1.523  1.00  0.00    +0.030 A 
ATOM     29  C   UNL     1       4.689   2.330   0.371  1.00  0.00    +0.056 A 
ATOM     30  C   UNL     1       5.458   0.840   2.107  1.00  0.00    +0.017 A 
ATOM     31  C   UNL     1       5.430   2.107   1.526  1.00  0.00    +0.016 A 
ATOM     32  F   UNL     1       3.235   1.548  -1.287  1.00  0.00    -0.205 F 
ATOM     33  I   UNL     1       6.493   3.667   2.392  1.00  0.00    -0.044 I 
ENDBRANCH  24  26
ENDBRANCH   2  24
TORSDOF 5
