REMARK SMILES O=C(c1ccc(F)c(F)c1Nc1ccc(I)cc1F)N1CC(O)([C@@H]2CCCCN2)C1
REMARK SMILES IDX 3 1 10 2 8 3 6 4 5 5 4 6 7 7 9 8 2 9 22 10 21 11 30 12 20 13
REMARK SMILES IDX 1 14 24 15 26 16 27 17 25 18 28 19 29 20 23 22 11 24 12 26
REMARK SMILES IDX 18 27 13 28 17 29 14 30 15 31 19 32 16 33
REMARK H PARENT 29 21 23 23 11 25
ROOT
ATOM      1  C   UNL     1      -1.394   0.285   1.850  1.00  0.00    +0.066 A 
ATOM      2  C   UNL     1      -2.804   0.240   1.755  1.00  0.00    +0.091 A 
ATOM      3  C   UNL     1      -3.520   1.366   2.196  1.00  0.00    +0.183 A 
ATOM      4  C   UNL     1      -2.867   2.473   2.731  1.00  0.00    +0.161 A 
ATOM      5  C   UNL     1      -1.482   2.496   2.847  1.00  0.00    +0.043 A 
ATOM      6  C   UNL     1      -0.742   1.398   2.412  1.00  0.00    +0.019 A 
ATOM      7  F   UNL     1      -3.572   3.529   3.159  1.00  0.00    -0.204 F 
ATOM      8  F   UNL     1      -4.863   1.376   2.145  1.00  0.00    -0.201 F 
ENDROOT
BRANCH   1   9
ATOM      9  C   UNL     1      -0.590  -0.876   1.384  1.00  0.00    +0.256 C 
ATOM     10  C   UNL     1       1.948  -0.437  -0.866  1.00  0.00    +0.115 C 
ATOM     11  C   UNL     1       0.817   0.449  -0.276  1.00  0.00    +0.158 C 
ATOM     12  C   UNL     1       1.290  -1.615  -0.097  1.00  0.00    +0.158 C 
ATOM     13  N   UNL     1       0.582  -0.614   0.703  1.00  0.00    -0.333 N 
ATOM     14  O   UNL     1      -0.994  -2.014   1.613  1.00  0.00    -0.269 OA
BRANCH  10  15
ATOM     15  C   UNL     1       3.397  -0.136  -0.400  1.00  0.00    +0.089 C 
ATOM     16  C   UNL     1       5.248   1.594  -0.380  1.00  0.00    +0.003 C 
ATOM     17  C   UNL     1       6.135   0.354  -0.307  1.00  0.00    +0.015 C 
ATOM     18  C   UNL     1       3.831   1.269  -0.850  1.00  0.00    +0.022 C 
ATOM     19  C   UNL     1       5.649  -0.729  -1.260  1.00  0.00    +0.081 C 
ATOM     20  N   UNL     1       4.289  -1.186  -0.959  1.00  0.00    -0.311 NA
ATOM     21  H   UNL     1       4.341  -1.955  -0.287  1.00  0.00    +0.123 HD
ENDBRANCH  10  15
BRANCH  10  22
ATOM     22  O   UNL     1       1.935  -0.581  -2.315  1.00  0.00    -0.385 OA
ATOM     23  H   UNL     1       2.756  -1.088  -2.484  1.00  0.00    +0.211 HD
ENDBRANCH  10  22
ENDBRANCH   1   9
BRANCH   2  24
ATOM     24  N   UNL     1      -3.459  -0.880   1.190  1.00  0.00    -0.350 N 
ATOM     25  H   UNL     1      -2.897  -1.736   1.247  1.00  0.00    +0.167 HD
BRANCH  24  26
ATOM     26  C   UNL     1      -4.439  -0.933   0.177  1.00  0.00    +0.075 A 
ATOM     27  C   UNL     1      -4.777   0.143  -0.659  1.00  0.00    +0.147 A 
ATOM     28  C   UNL     1      -5.168  -2.124   0.031  1.00  0.00    +0.030 A 
ATOM     29  C   UNL     1      -5.792   0.042  -1.611  1.00  0.00    +0.056 A 
ATOM     30  C   UNL     1      -6.188  -2.237  -0.920  1.00  0.00    +0.017 A 
ATOM     31  C   UNL     1      -6.496  -1.150  -1.737  1.00  0.00    +0.016 A 
ATOM     32  F   UNL     1      -4.090   1.294  -0.606  1.00  0.00    -0.205 F 
ATOM     33  I   UNL     1      -8.010  -1.314  -3.149  1.00  0.00    -0.044 I 
ENDBRANCH  24  26
ENDBRANCH   2  24
TORSDOF 5
