REMARK SMILES O=C(c1ccc(F)c(F)c1Nc1ccc(I)cc1F)N1CC(O)([C@@H]2CCCCN2)C1
REMARK SMILES IDX 3 1 10 2 8 3 6 4 5 5 4 6 7 7 9 8 2 9 22 10 21 11 30 12 20 13
REMARK SMILES IDX 1 14 24 15 26 16 27 17 25 18 28 19 29 20 23 22 11 24 12 26
REMARK SMILES IDX 18 27 13 28 17 29 14 30 15 31 19 32 16 33
REMARK H PARENT 29 21 23 23 11 25
ROOT
ATOM      1  C   UNL     1       1.485  -2.366   0.742  1.00  0.00    +0.066 A 
ATOM      2  C   UNL     1       2.568  -1.522   0.413  1.00  0.00    +0.091 A 
ATOM      3  C   UNL     1       3.557  -2.033  -0.443  1.00  0.00    +0.183 A 
ATOM      4  C   UNL     1       3.489  -3.340  -0.920  1.00  0.00    +0.161 A 
ATOM      5  C   UNL     1       2.436  -4.174  -0.566  1.00  0.00    +0.043 A 
ATOM      6  C   UNL     1       1.430  -3.690   0.270  1.00  0.00    +0.019 A 
ATOM      7  F   UNL     1       4.451  -3.812  -1.725  1.00  0.00    -0.204 F 
ATOM      8  F   UNL     1       4.605  -1.270  -0.794  1.00  0.00    -0.201 F 
ENDROOT
BRANCH   1   9
ATOM      9  C   UNL     1       0.396  -1.851   1.611  1.00  0.00    +0.256 C 
ATOM     10  C   UNL     1      -2.628  -1.393   0.353  1.00  0.00    +0.115 C 
ATOM     11  C   UNL     1      -1.473  -2.341  -0.072  1.00  0.00    +0.158 C 
ATOM     12  C   UNL     1      -2.098  -1.531   1.809  1.00  0.00    +0.158 C 
ATOM     13  N   UNL     1      -0.900  -2.158   1.260  1.00  0.00    -0.333 N 
ATOM     14  O   UNL     1       0.686  -1.154   2.580  1.00  0.00    -0.269 OA
BRANCH  10  15
ATOM     15  C   UNL     1      -2.598   0.010  -0.327  1.00  0.00    +0.089 C 
ATOM     16  C   UNL     1      -1.342   2.189  -0.672  1.00  0.00    +0.003 C 
ATOM     17  C   UNL     1      -2.607   2.929  -0.261  1.00  0.00    +0.015 C 
ATOM     18  C   UNL     1      -1.313   0.804  -0.034  1.00  0.00    +0.022 C 
ATOM     19  C   UNL     1      -3.845   2.098  -0.573  1.00  0.00    +0.081 C 
ATOM     20  N   UNL     1      -3.807   0.777   0.066  1.00  0.00    -0.311 NA
ATOM     21  H   UNL     1      -4.621   0.262  -0.280  1.00  0.00    +0.123 HD
ENDBRANCH  10  15
BRANCH  10  22
ATOM     22  O   UNL     1      -3.958  -1.969   0.159  1.00  0.00    -0.385 OA
ATOM     23  H   UNL     1      -4.513  -1.460   0.779  1.00  0.00    +0.211 HD
ENDBRANCH  10  22
ENDBRANCH   1   9
BRANCH   2  24
ATOM     24  N   UNL     1       2.619  -0.183   0.875  1.00  0.00    -0.350 N 
ATOM     25  H   UNL     1       2.094  -0.063   1.750  1.00  0.00    +0.167 HD
BRANCH  24  26
ATOM     26  C   UNL     1       2.644   1.007   0.112  1.00  0.00    +0.075 A 
ATOM     27  C   UNL     1       2.475   1.063  -1.281  1.00  0.00    +0.147 A 
ATOM     28  C   UNL     1       2.902   2.211   0.786  1.00  0.00    +0.030 A 
ATOM     29  C   UNL     1       2.544   2.268  -1.980  1.00  0.00    +0.056 A 
ATOM     30  C   UNL     1       2.974   3.425   0.095  1.00  0.00    +0.017 A 
ATOM     31  C   UNL     1       2.793   3.448  -1.287  1.00  0.00    +0.016 A 
ATOM     32  F   UNL     1       2.174  -0.041  -1.982  1.00  0.00    -0.205 F 
ATOM     33  I   UNL     1       2.885   5.250  -2.314  1.00  0.00    -0.044 I 
ENDBRANCH  24  26
ENDBRANCH   2  24
TORSDOF 5
