REMARK SMILES Nc1ccn([C@@H]2O[C@H](CO)[C@@H](O)[C@@H]2O)c(=O)n1
REMARK SMILES IDX 6 1 7 2 8 3 11 4 13 5 5 6 2 7 3 8 17 9 4 10 15 11 16 12 1 13
REMARK SMILES IDX 14 16 9 18 10 19 12 21
REMARK H PARENT 1 14 1 15 14 17 10 20 12 22
ROOT
ATOM      1  C   UNL     1      -0.376  -0.498  -0.740  1.00  0.00    +0.255 C 
ATOM      2  O   UNL     1      -1.246   0.602  -0.887  1.00  0.00    -0.347 OA
ATOM      3  C   UNL     1      -2.485   0.246  -0.308  1.00  0.00    +0.178 C 
ATOM      4  C   UNL     1      -2.332  -1.086   0.450  1.00  0.00    +0.179 C 
ATOM      5  C   UNL     1      -0.838  -1.335   0.448  1.00  0.00    +0.196 C 
ENDROOT
BRANCH   1   6
ATOM      6  N   UNL     1       1.032  -0.061  -0.601  1.00  0.00    -0.270 N 
ATOM      7  C   UNL     1       3.684   0.665  -0.338  1.00  0.00    +0.130 A 
ATOM      8  C   UNL     1       3.354  -0.505  -1.019  1.00  0.00    +0.065 A 
ATOM      9  N   UNL     1       2.698   1.424   0.200  1.00  0.00    -0.176 NA
ATOM     10  C   UNL     1       2.011  -0.855  -1.134  1.00  0.00    +0.097 A 
ATOM     11  C   UNL     1       1.389   1.077   0.085  1.00  0.00    +0.351 A 
ATOM     12  O   UNL     1       0.518   1.811   0.625  1.00  0.00    -0.246 OA
BRANCH   7  13
ATOM     13  N   UNL     1       5.047   1.064  -0.196  1.00  0.00    -0.383 N 
ATOM     14  H   UNL     1       5.820   0.490  -0.602  1.00  0.00    +0.158 HD
ATOM     15  H   UNL     1       5.288   1.940   0.318  1.00  0.00    +0.158 HD
ENDBRANCH   7  13
ENDBRANCH   1   6
BRANCH   5  16
ATOM     16  O   UNL     1      -0.268  -0.868   1.644  1.00  0.00    -0.386 OA
ATOM     17  H   UNL     1      -0.427  -1.570   2.327  1.00  0.00    +0.211 HD
ENDBRANCH   5  16
BRANCH   3  18
ATOM     18  C   UNL     1      -2.950   1.374   0.623  1.00  0.00    +0.191 C 
BRANCH  18  19
ATOM     19  O   UNL     1      -3.050   2.583  -0.081  1.00  0.00    -0.394 OA
ATOM     20  H   UNL     1      -3.879   2.527  -0.625  1.00  0.00    +0.210 HD
ENDBRANCH  18  19
ENDBRANCH   3  18
BRANCH   4  21
ATOM     21  O   UNL     1      -3.024  -2.128  -0.197  1.00  0.00    -0.387 OA
ATOM     22  H   UNL     1      -2.677  -2.203  -1.125  1.00  0.00    +0.211 HD
ENDBRANCH   4  21
TORSDOF 6
