REMARK SMILES CC(=O)O[C@@]12C[C@@H](O)[C@]3(C)C(=O)[C@H](O)C4=C(C)[C@@H](OC(=O)[C@H](O)[C@@H](NC(=O)OC(C)(C)C)c5ccccc5)C[C@@](O)([C@H](OC(=O)c5ccccc5)[C@H]3[C@]1(OC(C)=O)CO2)C4(C)C
REMARK SMILES IDX 19 1 20 2 21 3 22 4 24 5 25 6 26 7 27 8 28 10 29 11 30 12
REMARK SMILES IDX 31 13 32 14 33 15 34 16 38 17 35 18 37 19 36 20 23 21 18 23
REMARK SMILES IDX 39 24 16 25 40 26 15 27 60 28 17 29 61 30 62 31 41 33 42 35
REMARK SMILES IDX 43 36 44 37 45 38 46 39 47 40 51 41 48 42 50 43 49 44 52 45
REMARK SMILES IDX 53 46 9 47 58 48 5 49 7 50 59 51 6 52 10 53 54 54 55 55
REMARK SMILES IDX 57 56 56 57 11 58 12 59 13 60 14 62 4 64 2 65 3 66 1 67 8 68
REMARK H PARENT 25 9 23 22 41 34 14 63 8 69
REMARK Flexibility Score:  146.900
ROOT
ATOM      1  O   UNL     1       1.715  -0.315   0.223  1.00  0.00    -0.456 OA
ENDROOT
BRANCH   1   2
ATOM      2  C   UNL     1       2.593   0.509  -0.494  1.00  0.00    +0.338 C 
ATOM      3  O   UNL     1       2.928   1.635  -0.033  1.00  0.00    -0.249 OA
BRANCH   2   4
ATOM      4  C   UNL     1       3.135   0.063  -1.828  1.00  0.00    +0.251 C 
BRANCH   4   5
ATOM      5  C   UNL     1       4.581  -0.485  -1.750  1.00  0.00    +0.156 C 
BRANCH   5   6
ATOM      6  N   UNL     1       5.521   0.541  -1.274  1.00  0.00    -0.311 N 
ATOM      7  C   UNL     1       6.886   0.613  -1.697  1.00  0.00    +0.408 C 
ATOM      8  O   UNL     1       7.281  -0.059  -2.688  1.00  0.00    -0.225 OA
ATOM      9  H   UNL     1       5.267   1.130  -0.451  1.00  0.00    +0.167 HD
BRANCH   7  10
ATOM     10  O   UNL     1       7.762   1.448  -0.989  1.00  0.00    -0.444 OA
BRANCH  10  11
ATOM     11  C   UNL     1       9.128   1.736  -1.319  1.00  0.00    +0.106 C 
ATOM     12  C   UNL     1       9.977   0.450  -1.304  1.00  0.00    +0.056 C 
ATOM     13  C   UNL     1       9.659   2.695  -0.243  1.00  0.00    +0.056 C 
ATOM     14  C   UNL     1       9.212   2.427  -2.692  1.00  0.00    +0.056 C 
ENDBRANCH  10  11
ENDBRANCH   7  10
ENDBRANCH   5   6
BRANCH   5  15
ATOM     15  C   UNL     1       4.684  -1.745  -0.908  1.00  0.00    -0.022 A 
ATOM     16  C   UNL     1       4.856  -1.683   0.489  1.00  0.00    +0.006 A 
ATOM     17  C   UNL     1       4.582  -3.006  -1.524  1.00  0.00    +0.006 A 
ATOM     18  C   UNL     1       4.957  -2.858   1.243  1.00  0.00    +0.000 A 
ATOM     19  C   UNL     1       4.670  -4.176  -0.764  1.00  0.00    +0.000 A 
ATOM     20  C   UNL     1       4.861  -4.102   0.617  1.00  0.00    +0.000 A 
ENDBRANCH   5  15
ENDBRANCH   4   5
BRANCH   4  21
ATOM     21  O   UNL     1       2.293  -0.914  -2.386  1.00  0.00    -0.379 OA
ATOM     22  H   UNL     1       1.482  -0.444  -2.714  1.00  0.00    +0.211 HD
ENDBRANCH   4  21
ENDBRANCH   2   4
ENDBRANCH   1   2
BRANCH   1  23
ATOM     23  C   UNL     1       1.245   0.003   1.539  1.00  0.00    +0.205 C 
ATOM     24  C   UNL     1       0.369   1.303   1.493  1.00  0.00    +0.090 C 
ATOM     25  C   UNL     1       0.562  -1.238   2.156  1.00  0.00    -0.030 C 
ATOM     26  C   UNL     1      -1.117   1.075   1.909  1.00  0.00    +0.115 C 
ATOM     27  C   UNL     1      -0.609  -1.158   2.880  1.00  0.00    -0.023 CG0
ATOM     28  C   UNL     1      -1.084   0.266   3.274  1.00  0.00    +0.022 C 
ATOM     29  C   UNL     1       1.292  -2.559   2.009  1.00  0.00    +0.043 C 
ATOM     30  C   UNL     1      -0.035   0.834   4.298  1.00  0.00    +0.019 C 
ATOM     31  C   UNL     1      -2.422   0.450   4.090  1.00  0.00    +0.019 C 
ATOM     32  G   UNL     1      -1.438  -2.446   3.101  1.00  0.00    +0.000 G0
BRANCH  26  33
ATOM     33  O   UNL     1      -1.732   2.323   2.158  1.00  0.00    -0.385 OA
ATOM     34  H   UNL     1      -1.487   2.955   1.430  1.00  0.00    +0.211 HD
ENDBRANCH  26  33
BRANCH  26  35
ATOM     35  C   UNL     1      -1.834   0.366   0.650  1.00  0.00    +0.218 C 
BRANCH  35  36
ATOM     36  O   UNL     1      -2.331   1.385  -0.229  1.00  0.00    -0.455 OA
BRANCH  36  37
ATOM     37  C   UNL     1      -2.571   1.231  -1.602  1.00  0.00    +0.338 C 
ATOM     38  O   UNL     1      -2.110   0.242  -2.227  1.00  0.00    -0.246 OA
BRANCH  37  39
ATOM     39  C   UNL     1      -3.367   2.242  -2.322  1.00  0.00    +0.060 A 
ATOM     40  C   UNL     1      -4.002   1.919  -3.534  1.00  0.00    +0.015 A 
ATOM     41  C   UNL     1      -3.517   3.534  -1.793  1.00  0.00    +0.015 A 
ATOM     42  C   UNL     1      -4.775   2.875  -4.201  1.00  0.00    +0.001 A 
ATOM     43  C   UNL     1      -4.287   4.488  -2.466  1.00  0.00    +0.001 A 
ATOM     44  C   UNL     1      -4.916   4.158  -3.668  1.00  0.00    +0.000 A 
ENDBRANCH  37  39
ENDBRANCH  36  37
ENDBRANCH  35  36
BRANCH  35  45
ATOM     45  C   UNL     1      -2.925  -0.761   0.945  1.00  0.00    +0.103 C 
ATOM     46  C   UNL     1      -4.429  -0.279   0.777  1.00  0.00    +0.208 C 
ATOM     47  C   UNL     1      -2.536  -2.288   0.564  1.00  0.00    +0.066 C 
ATOM     48  C   UNL     1      -5.438  -0.919   1.735  1.00  0.00    +0.221 C 
ATOM     49  C   UNL     1      -5.277  -0.977  -0.281  1.00  0.00    +0.259 C 
ATOM     50  C   UNL     1      -3.811  -3.038   0.025  1.00  0.00    +0.135 C 
ATOM     51  O   UNL     1      -6.219  -1.424   0.675  1.00  0.00    -0.332 OA
ATOM     52  C   UNL     1      -4.609  -2.170  -0.975  1.00  0.00    +0.117 C 
ATOM     53  C   UNL     1      -1.426  -2.435  -0.524  1.00  0.00    +0.023 C 
BRANCH  46  54
ATOM     54  O   UNL     1      -4.551   1.162   0.821  1.00  0.00    -0.449 OA
BRANCH  54  55
ATOM     55  C   UNL     1      -5.714   1.957   0.853  1.00  0.00    +0.303 C 
ATOM     56  O   UNL     1      -6.867   1.454   0.769  1.00  0.00    -0.253 OA
ATOM     57  C   UNL     1      -5.577   3.434   0.972  1.00  0.00    +0.139 C 
ENDBRANCH  54  55
ENDBRANCH  46  54
BRANCH  47  58
ATOM     58  C   UNL     1      -1.981  -3.066   1.798  1.00  0.00    +0.174 C 
ATOM     59  O   UNL     1      -1.966  -4.287   1.743  1.00  0.00    -0.296 OA
BRANCH  58  60
ATOM     60  C   UNL     1      -1.438  -2.446   3.101  1.00  0.00    +0.208 CG0
ATOM     61  G   UNL     1      -0.609  -1.158   2.880  1.00  0.00    +0.000 G0
BRANCH  60  62
ATOM     62  O   UNL     1      -2.500  -2.265   3.997  1.00  0.00    -0.381 OA
ATOM     63  H   UNL     1      -2.816  -3.168   4.264  1.00  0.00    +0.212 HD
ENDBRANCH  60  62
ENDBRANCH  58  60
ENDBRANCH  47  58
BRANCH  49  64
ATOM     64  O   UNL     1      -5.843  -0.062  -1.223  1.00  0.00    -0.429 OA
BRANCH  64  65
ATOM     65  C   UNL     1      -6.985  -0.322  -1.986  1.00  0.00    +0.305 C 
ATOM     66  O   UNL     1      -7.607  -1.413  -1.874  1.00  0.00    -0.253 OA
ATOM     67  C   UNL     1      -7.452   0.699  -2.967  1.00  0.00    +0.139 C 
ENDBRANCH  64  65
ENDBRANCH  49  64
BRANCH  50  68
ATOM     68  O   UNL     1      -3.506  -4.296  -0.537  1.00  0.00    -0.392 OA
ATOM     69  H   UNL     1      -3.292  -4.177  -1.500  1.00  0.00    +0.210 HD
ENDBRANCH  50  68
ENDBRANCH  35  45
ENDBRANCH  26  35
ENDBRANCH   1  23
TORSDOF 19
