REMARK SMILES CC(=O)O[C@@]12CO[C@@H]1C[C@H](O)[C@@]1(C)C(=O)[C@H](O)C3=C(C)[C@@H](OC(=O)[C@H](O)[C@@H](NC(=O)OC(C)(C)C)c4ccccc4)C[C@@](O)([C@@H](OC(=O)c4ccccc4)[C@H]21)C3(C)C
REMARK SMILES IDX 22 1 21 2 19 3 18 4 56 5 42 6 43 7 20 8 57 9 58 10 45 12
REMARK SMILES IDX 55 13 5 14 12 15 8 16 6 17 10 18 9 19 7 20 13 21 4 22 2 23
REMARK SMILES IDX 3 24 1 25 14 26 15 27 16 28 17 30 11 32 46 34 47 35 48 36
REMARK SMILES IDX 49 37 50 38 54 39 51 40 53 41 52 42 44 43 23 45 24 46 25 47
REMARK SMILES IDX 27 48 36 49 37 50 41 51 38 52 40 53 39 54 28 55 29 56 30 57
REMARK SMILES IDX 31 59 32 60 33 61 34 62 35 63 26 64
REMARK H PARENT 17 31 11 33 44 44 28 58 26 65
REMARK Flexibility Score:  146.900
ROOT
ATOM      1  O   UNL     1       1.117  -1.027   0.621  1.00  0.00    -0.456 OA
ENDROOT
BRANCH   1   2
ATOM      2  C   UNL     1       0.434  -1.933  -0.270  1.00  0.00    +0.205 C 
ATOM      3  C   UNL     1       0.486  -1.361  -1.677  1.00  0.00    -0.030 C 
ATOM      4  C   UNL     1      -0.501  -1.644  -2.571  1.00  0.00    -0.023 CG0
ATOM      5  C   UNL     1      -1.541  -2.729  -2.214  1.00  0.00    +0.022 C 
ATOM      6  C   UNL     1      -1.005  -2.150   0.248  1.00  0.00    +0.090 C 
ATOM      7  C   UNL     1      -2.125  -2.289  -0.831  1.00  0.00    +0.115 C 
ATOM      8  C   UNL     1       1.672  -0.474  -1.974  1.00  0.00    +0.043 C 
ATOM      9  C   UNL     1      -2.683  -3.016  -3.230  1.00  0.00    +0.019 C 
ATOM     10  C   UNL     1      -0.829  -4.120  -2.146  1.00  0.00    +0.019 C 
ATOM     11  G   UNL     1      -0.672  -0.834  -3.825  1.00  0.00    +0.000 G0
BRANCH   7  12
ATOM     12  C   UNL     1      -3.073  -0.993  -0.903  1.00  0.00    +0.218 C 
BRANCH  12  13
ATOM     13  C   UNL     1      -2.431   0.379  -1.377  1.00  0.00    +0.098 C 
ATOM     14  C   UNL     1      -2.723   1.574  -0.390  1.00  0.00    +0.169 C 
ATOM     15  C   UNL     1      -2.684   0.772  -2.921  1.00  0.00    +0.066 C 
ATOM     16  C   UNL     1      -2.246   2.952  -0.941  1.00  0.00    +0.168 C 
ATOM     17  C   UNL     1      -4.103   2.302  -0.374  1.00  0.00    +0.212 C 
ATOM     18  C   UNL     1      -2.009   2.147  -3.302  1.00  0.00    +0.131 C 
ATOM     19  C   UNL     1      -1.348   2.911  -2.161  1.00  0.00    +0.069 C 
ATOM     20  O   UNL     1      -3.612   3.331  -1.271  1.00  0.00    -0.370 OA
ATOM     21  C   UNL     1      -4.205   0.801  -3.271  1.00  0.00    +0.023 C 
BRANCH  14  22
ATOM     22  O   UNL     1      -2.300   1.255   0.971  1.00  0.00    -0.454 OA
BRANCH  22  23
ATOM     23  C   UNL     1      -1.007   1.483   1.317  1.00  0.00    +0.303 C 
ATOM     24  O   UNL     1      -0.112   1.775   0.540  1.00  0.00    -0.253 OA
ATOM     25  C   UNL     1      -0.842   1.297   2.796  1.00  0.00    +0.139 C 
ENDBRANCH  22  23
ENDBRANCH  14  22
BRANCH  15  26
ATOM     26  C   UNL     1      -2.084  -0.227  -3.976  1.00  0.00    +0.174 C 
ATOM     27  O   UNL     1      -2.683  -0.487  -5.033  1.00  0.00    -0.296 OA
BRANCH  26  28
ATOM     28  C   UNL     1      -0.672  -0.834  -3.825  1.00  0.00    +0.208 CG0
ATOM     29  G   UNL     1      -0.501  -1.644  -2.571  1.00  0.00    +0.000 G0
BRANCH  28  30
ATOM     30  O   UNL     1      -0.353  -1.684  -4.919  1.00  0.00    -0.381 OA
ATOM     31  H   UNL     1      -1.038  -1.510  -5.597  1.00  0.00    +0.212 HD
ENDBRANCH  28  30
ENDBRANCH  26  28
ENDBRANCH  15  26
BRANCH  18  32
ATOM     32  O   UNL     1      -2.920   3.038  -3.953  1.00  0.00    -0.392 OA
ATOM     33  H   UNL     1      -3.492   3.432  -3.262  1.00  0.00    +0.210 HD
ENDBRANCH  18  32
ENDBRANCH  12  13
BRANCH  12  34
ATOM     34  O   UNL     1      -3.631  -0.890   0.444  1.00  0.00    -0.455 OA
BRANCH  34  35
ATOM     35  C   UNL     1      -4.974  -0.753   0.573  1.00  0.00    +0.338 C 
ATOM     36  O   UNL     1      -5.769  -0.648  -0.345  1.00  0.00    -0.246 OA
BRANCH  35  37
ATOM     37  C   UNL     1      -5.356  -0.714   2.009  1.00  0.00    +0.060 A 
ATOM     38  C   UNL     1      -4.419  -0.859   3.042  1.00  0.00    +0.015 A 
ATOM     39  C   UNL     1      -6.707  -0.522   2.327  1.00  0.00    +0.015 A 
ATOM     40  C   UNL     1      -4.833  -0.810   4.376  1.00  0.00    +0.001 A 
ATOM     41  C   UNL     1      -7.116  -0.474   3.661  1.00  0.00    +0.001 A 
ATOM     42  C   UNL     1      -6.179  -0.617   4.683  1.00  0.00    +0.000 A 
ENDBRANCH  35  37
ENDBRANCH  34  35
ENDBRANCH  12  34
ENDBRANCH   7  12
BRANCH   7  43
ATOM     43  O   UNL     1      -2.980  -3.365  -0.364  1.00  0.00    -0.385 OA
ATOM     44  H   UNL     1      -3.396  -3.064   0.464  1.00  0.00    +0.211 HD
ENDBRANCH   7  43
ENDBRANCH   1   2
BRANCH   1  45
ATOM     45  C   UNL     1       1.703  -1.592   1.715  1.00  0.00    +0.338 C 
ATOM     46  O   UNL     1       1.538  -2.749   2.078  1.00  0.00    -0.249 OA
BRANCH  45  47
ATOM     47  C   UNL     1       2.651  -0.595   2.383  1.00  0.00    +0.251 C 
BRANCH  47  48
ATOM     48  C   UNL     1       4.052  -0.753   1.719  1.00  0.00    +0.156 C 
BRANCH  48  49
ATOM     49  C   UNL     1       4.855  -1.889   2.334  1.00  0.00    -0.022 A 
ATOM     50  C   UNL     1       5.230  -2.990   1.548  1.00  0.00    +0.006 A 
ATOM     51  C   UNL     1       5.247  -1.862   3.683  1.00  0.00    +0.006 A 
ATOM     52  C   UNL     1       5.969  -4.038   2.099  1.00  0.00    +0.000 A 
ATOM     53  C   UNL     1       5.986  -2.912   4.231  1.00  0.00    +0.000 A 
ATOM     54  C   UNL     1       6.346  -3.999   3.439  1.00  0.00    +0.000 A 
ENDBRANCH  48  49
BRANCH  48  55
ATOM     55  N   UNL     1       4.852   0.464   1.737  1.00  0.00    -0.311 N 
ATOM     56  C   UNL     1       4.585   1.511   0.911  1.00  0.00    +0.408 C 
ATOM     57  O   UNL     1       3.695   1.508   0.074  1.00  0.00    -0.225 OA
ATOM     58  H   UNL     1       5.566   0.611   2.435  1.00  0.00    +0.167 HD
BRANCH  56  59
ATOM     59  O   UNL     1       5.433   2.523   1.187  1.00  0.00    -0.444 OA
BRANCH  59  60
ATOM     60  C   UNL     1       5.338   3.780   0.469  1.00  0.00    +0.106 C 
ATOM     61  C   UNL     1       3.987   4.461   0.718  1.00  0.00    +0.056 C 
ATOM     62  C   UNL     1       5.615   3.590  -1.027  1.00  0.00    +0.056 C 
ATOM     63  C   UNL     1       6.448   4.658   1.067  1.00  0.00    +0.056 C 
ENDBRANCH  59  60
ENDBRANCH  56  59
ENDBRANCH  48  55
ENDBRANCH  47  48
BRANCH  47  64
ATOM     64  O   UNL     1       2.144   0.743   2.310  1.00  0.00    -0.379 OA
ATOM     65  H   UNL     1       2.106   0.985   1.357  1.00  0.00    +0.211 HD
ENDBRANCH  47  64
ENDBRANCH  45  47
ENDBRANCH   1  45
TORSDOF 17
