REMARK SMILES COc1cccc2c1C(=O)c1c(O)c3c(c(O)c1C2=O)C[C@@](O)(C(=O)CO)C[C@@H]3O[C@H]1C[C@H](N)[C@H](O)[C@H](C)O1
REMARK SMILES IDX 29 1 28 2 22 3 21 4 15 5 14 6 12 7 11 8 18 9 16 10 19 11
REMARK SMILES IDX 20 12 7 13 8 14 9 15 10 16 3 17 4 18 5 19 6 20 30 21 31 22
REMARK SMILES IDX 37 23 35 24 39 25 33 26 32 27 38 28 36 29 34 31 24 34 25 35
REMARK SMILES IDX 26 36 27 37 23 39 13 41 17 43 2 45 1 46
REMARK H PARENT 36 30 34 32 34 33 27 38 23 40 13 42 17 44
ROOT
ATOM      1  C   UNL     1      -0.987   0.564  -1.214  1.00  0.00    +0.159 C 
ATOM      2  C   UNL     1      -1.626   1.932  -1.460  1.00  0.00    +0.081 C 
ATOM      3  C   UNL     1      -1.450   2.858  -0.252  1.00  0.00    +0.132 C 
ATOM      4  C   UNL     1       0.041   3.078   0.049  1.00  0.00    +0.083 C 
ATOM      5  C   UNL     1       0.916   1.845  -0.106  1.00  0.00    +0.008 A 
ATOM      6  C   UNL     1       0.450   0.679  -0.745  1.00  0.00    +0.031 A 
ATOM      7  C   UNL     1       1.327  -0.413  -0.893  1.00  0.00    +0.133 A 
ATOM      8  C   UNL     1       2.654  -0.364  -0.424  1.00  0.00    +0.080 A 
ATOM      9  C   UNL     1       3.111   0.792   0.197  1.00  0.00    +0.080 A 
ATOM     10  C   UNL     1       2.246   1.889   0.348  1.00  0.00    +0.131 A 
ATOM     11  C   UNL     1       4.498   0.859   0.687  1.00  0.00    +0.198 C 
ATOM     12  O   UNL     1       4.898   1.888   1.225  1.00  0.00    -0.288 OA
ATOM     13  C   UNL     1       5.396  -0.300   0.534  1.00  0.00    +0.038 A 
ATOM     14  C   UNL     1       4.956  -1.474  -0.084  1.00  0.00    +0.076 A 
ATOM     15  C   UNL     1       3.557  -1.528  -0.591  1.00  0.00    +0.202 C 
ATOM     16  O   UNL     1       3.097  -2.514  -1.158  1.00  0.00    -0.288 OA
ATOM     17  C   UNL     1       5.846  -2.564  -0.211  1.00  0.00    +0.130 A 
ATOM     18  C   UNL     1       7.152  -2.445   0.286  1.00  0.00    +0.047 A 
ATOM     19  C   UNL     1       7.579  -1.268   0.900  1.00  0.00    +0.005 A 
ATOM     20  C   UNL     1       6.704  -0.196   1.025  1.00  0.00    +0.013 A 
ENDROOT
BRANCH   1  21
ATOM     21  O   UNL     1      -1.698  -0.089  -0.148  1.00  0.00    -0.344 OA
BRANCH  21  22
ATOM     22  C   UNL     1      -2.432  -1.229  -0.601  1.00  0.00    +0.252 C 
ATOM     23  C   UNL     1      -4.592  -0.195  -0.451  1.00  0.00    +0.148 C 
ATOM     24  C   UNL     1      -5.005  -1.068   0.750  1.00  0.00    +0.160 C 
ATOM     25  O   UNL     1      -3.617  -0.838  -1.285  1.00  0.00    -0.347 OA
ATOM     26  C   UNL     1      -3.748  -1.495   1.534  1.00  0.00    +0.087 C 
ATOM     27  C   UNL     1      -2.734  -2.141   0.588  1.00  0.00    +0.083 C 
ATOM     28  C   UNL     1      -5.780   0.154  -1.341  1.00  0.00    +0.041 C 
BRANCH  24  29
ATOM     29  O   UNL     1      -5.721  -2.229   0.308  1.00  0.00    -0.389 OA
ATOM     30  H   UNL     1      -5.992  -2.712   1.106  1.00  0.00    +0.211 HD
ENDBRANCH  24  29
BRANCH  26  31
ATOM     31  N   UNL     1      -4.057  -2.422   2.637  1.00  0.00    -0.325 NA
ATOM     32  H   UNL     1      -4.319  -3.335   2.267  1.00  0.00    +0.119 HD
ATOM     33  H   UNL     1      -4.835  -2.073   3.192  1.00  0.00    +0.119 HD
ENDBRANCH  26  31
ENDBRANCH  21  22
ENDBRANCH   1  21
BRANCH   3  34
ATOM     34  C   UNL     1      -2.127   4.199  -0.587  1.00  0.00    +0.190 C 
ATOM     35  O   UNL     1      -1.565   5.088  -1.236  1.00  0.00    -0.294 OA
BRANCH  34  36
ATOM     36  C   UNL     1      -3.570   4.387  -0.128  1.00  0.00    +0.234 C 
BRANCH  36  37
ATOM     37  O   UNL     1      -4.173   5.516  -0.751  1.00  0.00    -0.388 OA
ATOM     38  H   UNL     1      -3.439   6.121  -0.981  1.00  0.00    +0.211 HD
ENDBRANCH  36  37
ENDBRANCH  34  36
ENDBRANCH   3  34
BRANCH   3  39
ATOM     39  O   UNL     1      -2.086   2.316   0.912  1.00  0.00    -0.382 OA
ATOM     40  H   UNL     1      -1.849   1.365   0.953  1.00  0.00    +0.212 HD
ENDBRANCH   3  39
BRANCH   7  41
ATOM     41  O   UNL     1       0.824  -1.529  -1.518  1.00  0.00    -0.507 OA
ATOM     42  H   UNL     1       1.535  -2.212  -1.558  1.00  0.00    +0.293 HD
ENDBRANCH   7  41
BRANCH  10  43
ATOM     43  O   UNL     1       2.657   3.059   0.940  1.00  0.00    -0.507 OA
ATOM     44  H   UNL     1       3.598   2.965   1.214  1.00  0.00    +0.293 HD
ENDBRANCH  10  43
BRANCH  17  45
ATOM     45  O   UNL     1       5.380  -3.698  -0.819  1.00  0.00    -0.496 OA
ATOM     46  C   UNL     1       6.258  -4.805  -0.969  1.00  0.00    +0.278 C 
ENDBRANCH  17  45
TORSDOF 11
