REMARK SMILES COc1cccc2c1C(=O)c1c(O)c3c(c(O)c1C2=O)[C@@H](O[C@H]1C[C@H](N)[C@H](O)[C@H](C)O1)C[C@](O)(C(=O)CO)C3
REMARK SMILES IDX 3 1 4 2 5 3 6 4 7 5 19 6 20 7 18 8 16 9 15 10 14 11 12 12
REMARK SMILES IDX 11 13 9 14 10 15 8 16 39 17 33 18 32 19 21 20 2 21 1 22
REMARK SMILES IDX 13 23 17 25 22 27 23 28 24 29 31 30 25 31 29 32 27 33 30 34
REMARK SMILES IDX 26 35 28 38 34 40 35 42 36 43 37 44 38 45
REMARK H PARENT 13 24 17 26 26 36 26 37 28 39 34 41 38 46
ROOT
ATOM      1  C   UNL     1       5.462  -1.621   0.533  1.00  0.00    +0.130 A 
ATOM      2  C   UNL     1       6.195  -2.667  -0.060  1.00  0.00    +0.047 A 
ATOM      3  C   UNL     1       5.670  -3.377  -1.136  1.00  0.00    +0.005 A 
ATOM      4  C   UNL     1       4.413  -3.055  -1.641  1.00  0.00    +0.013 A 
ATOM      5  C   UNL     1       3.659  -2.015  -1.072  1.00  0.00    +0.038 A 
ATOM      6  C   UNL     1       2.330  -1.669  -1.628  1.00  0.00    +0.198 C 
ATOM      7  O   UNL     1       1.956  -2.221  -2.697  1.00  0.00    -0.288 OA
ATOM      8  C   UNL     1       1.503  -0.596  -1.004  1.00  0.00    +0.080 A 
ATOM      9  C   UNL     1       0.159  -0.355  -1.394  1.00  0.00    +0.133 A 
ATOM     10  C   UNL     1      -0.495   0.815  -0.968  1.00  0.00    +0.031 A 
ATOM     11  C   UNL     1       0.172   1.736  -0.146  1.00  0.00    +0.008 A 
ATOM     12  C   UNL     1       1.470   1.462   0.319  1.00  0.00    +0.131 A 
ATOM     13  C   UNL     1       2.108   0.248  -0.044  1.00  0.00    +0.080 A 
ATOM     14  C   UNL     1       3.359  -0.209   0.623  1.00  0.00    +0.202 C 
ATOM     15  O   UNL     1       3.660   0.241   1.761  1.00  0.00    -0.288 OA
ATOM     16  C   UNL     1       4.180  -1.292   0.023  1.00  0.00    +0.076 A 
ATOM     17  C   UNL     1      -0.582   2.967   0.308  1.00  0.00    +0.083 C 
ATOM     18  C   UNL     1      -1.422   3.613  -0.838  1.00  0.00    +0.132 C 
ATOM     19  C   UNL     1      -2.018   2.563  -1.843  1.00  0.00    +0.081 C 
ATOM     20  C   UNL     1      -1.935   1.110  -1.349  1.00  0.00    +0.159 C 
ENDROOT
BRANCH   1  21
ATOM     21  O   UNL     1       5.983  -0.897   1.619  1.00  0.00    -0.496 OA
ATOM     22  C   UNL     1       7.251  -1.133   2.222  1.00  0.00    +0.278 C 
ENDBRANCH   1  21
BRANCH  12  23
ATOM     23  O   UNL     1       2.111   2.427   1.103  1.00  0.00    -0.507 OA
ATOM     24  H   UNL     1       3.112   2.456   1.243  1.00  0.00    +0.293 HD
ENDBRANCH  12  23
BRANCH   9  25
ATOM     25  O   UNL     1      -0.563  -1.274  -2.162  1.00  0.00    -0.507 OA
ATOM     26  H   UNL     1      -0.322  -2.252  -2.235  1.00  0.00    +0.293 HD
ENDBRANCH   9  25
BRANCH  20  27
ATOM     27  O   UNL     1      -2.792   0.959  -0.228  1.00  0.00    -0.344 OA
BRANCH  27  28
ATOM     28  C   UNL     1      -3.077  -0.401   0.061  1.00  0.00    +0.252 C 
ATOM     29  C   UNL     1      -2.379  -0.775   1.385  1.00  0.00    +0.083 C 
ATOM     30  O   UNL     1      -4.494  -0.550   0.109  1.00  0.00    -0.347 OA
ATOM     31  C   UNL     1      -2.640  -2.253   1.747  1.00  0.00    +0.087 C 
ATOM     32  C   UNL     1      -4.962  -1.540   1.023  1.00  0.00    +0.148 C 
ATOM     33  C   UNL     1      -4.000  -2.742   1.175  1.00  0.00    +0.160 C 
ATOM     34  C   UNL     1      -6.348  -2.003   0.573  1.00  0.00    +0.041 C 
BRANCH  31  35
ATOM     35  N   UNL     1      -1.539  -3.101   1.278  1.00  0.00    -0.325 NA
ATOM     36  H   UNL     1      -0.658  -2.793   1.750  1.00  0.00    +0.119 HD
ATOM     37  H   UNL     1      -1.713  -4.076   1.612  1.00  0.00    +0.119 HD
ENDBRANCH  31  35
BRANCH  33  38
ATOM     38  O   UNL     1      -3.828  -3.359  -0.080  1.00  0.00    -0.389 OA
ATOM     39  H   UNL     1      -3.714  -4.332   0.083  1.00  0.00    +0.211 HD
ENDBRANCH  33  38
ENDBRANCH  27  28
ENDBRANCH  20  27
BRANCH  18  40
ATOM     40  O   UNL     1      -2.477   4.346  -0.254  1.00  0.00    -0.382 OA
ATOM     41  H   UNL     1      -3.087   3.701   0.193  1.00  0.00    +0.212 HD
ENDBRANCH  18  40
BRANCH  18  42
ATOM     42  C   UNL     1      -0.525   4.578  -1.608  1.00  0.00    +0.190 C 
ATOM     43  O   UNL     1       0.473   4.150  -2.170  1.00  0.00    -0.294 OA
BRANCH  42  44
ATOM     44  C   UNL     1      -0.793   6.060  -1.648  1.00  0.00    +0.234 C 
BRANCH  44  45
ATOM     45  O   UNL     1      -0.428   6.645  -0.428  1.00  0.00    -0.388 OA
ATOM     46  H   UNL     1       0.562   6.705  -0.429  1.00  0.00    +0.211 HD
ENDBRANCH  44  45
ENDBRANCH  42  44
ENDBRANCH  18  42
TORSDOF 11
