REMARK SMILES COc1cccc2c1C(=O)c1c(O)c3c(c(O)c1C2=O)C[C@](O)(C(=O)CO)C[C@H]3O[C@H]1C[C@H](N)[C@@H](O)[C@H](C)O1
REMARK SMILES IDX 3 1 4 2 5 3 6 4 7 5 19 6 20 7 18 8 16 9 15 10 21 11 22 12
REMARK SMILES IDX 28 13 29 14 14 15 12 16 11 17 9 18 10 19 8 20 2 21 1 22
REMARK SMILES IDX 13 23 17 25 30 27 31 28 32 29 39 30 33 31 37 32 35 33 38 34
REMARK SMILES IDX 34 35 36 38 23 40 24 42 25 43 26 44 27 45
REMARK H PARENT 13 24 17 26 34 36 34 37 36 39 23 41 27 46
ROOT
ATOM      1  C   UNL     1      -5.541  -2.059   1.478  1.00  0.00    +0.130 A 
ATOM      2  C   UNL     1      -6.657  -1.820   2.303  1.00  0.00    +0.047 A 
ATOM      3  C   UNL     1      -7.013  -0.518   2.652  1.00  0.00    +0.005 A 
ATOM      4  C   UNL     1      -6.260   0.561   2.195  1.00  0.00    +0.013 A 
ATOM      5  C   UNL     1      -5.140   0.350   1.374  1.00  0.00    +0.038 A 
ATOM      6  C   UNL     1      -4.331   1.495   0.898  1.00  0.00    +0.198 C 
ATOM      7  O   UNL     1      -4.757   2.669   1.089  1.00  0.00    -0.288 OA
ATOM      8  C   UNL     1      -3.018   1.262   0.222  1.00  0.00    +0.080 A 
ATOM      9  C   UNL     1      -2.155   2.336  -0.094  1.00  0.00    +0.131 A 
ATOM     10  C   UNL     1      -0.885   2.090  -0.672  1.00  0.00    +0.008 A 
ATOM     11  C   UNL     1       0.025   3.259  -1.014  1.00  0.00    +0.083 C 
ATOM     12  C   UNL     1       1.496   2.859  -1.287  1.00  0.00    +0.132 C 
ATOM     13  C   UNL     1       1.502   1.662  -2.249  1.00  0.00    +0.081 C 
ATOM     14  C   UNL     1       0.832   0.429  -1.620  1.00  0.00    +0.159 C 
ATOM     15  C   UNL     1      -0.514   0.761  -0.995  1.00  0.00    +0.031 A 
ATOM     16  C   UNL     1      -1.362  -0.308  -0.650  1.00  0.00    +0.133 A 
ATOM     17  C   UNL     1      -2.641  -0.061  -0.101  1.00  0.00    +0.080 A 
ATOM     18  C   UNL     1      -3.638  -1.152   0.083  1.00  0.00    +0.202 C 
ATOM     19  O   UNL     1      -3.571  -2.196  -0.620  1.00  0.00    -0.288 OA
ATOM     20  C   UNL     1      -4.787  -0.962   0.999  1.00  0.00    +0.076 A 
ENDROOT
BRANCH   1  21
ATOM     21  O   UNL     1      -5.154  -3.366   1.135  1.00  0.00    -0.496 OA
ATOM     22  C   UNL     1      -5.794  -4.550   1.597  1.00  0.00    +0.278 C 
ENDBRANCH   1  21
BRANCH  16  23
ATOM     23  O   UNL     1      -0.880  -1.611  -0.828  1.00  0.00    -0.507 OA
ATOM     24  H   UNL     1      -1.258  -2.420  -0.355  1.00  0.00    +0.293 HD
ENDBRANCH  16  23
BRANCH   9  25
ATOM     25  O   UNL     1      -2.588   3.644   0.157  1.00  0.00    -0.507 OA
ATOM     26  H   UNL     1      -2.102   4.476  -0.147  1.00  0.00    +0.293 HD
ENDBRANCH   9  25
BRANCH  14  27
ATOM     27  O   UNL     1       1.659  -0.121  -0.603  1.00  0.00    -0.344 OA
BRANCH  27  28
ATOM     28  C   UNL     1       2.504  -1.171  -1.057  1.00  0.00    +0.252 C 
ATOM     29  C   UNL     1       3.944  -0.634  -1.293  1.00  0.00    +0.083 C 
ATOM     30  O   UNL     1       2.451  -2.235  -0.114  1.00  0.00    -0.347 OA
ATOM     31  C   UNL     1       5.015  -1.641  -0.848  1.00  0.00    +0.087 C 
ATOM     32  C   UNL     1       3.270  -1.968   1.010  1.00  0.00    +0.148 C 
ATOM     33  C   UNL     1       4.764  -2.108   0.617  1.00  0.00    +0.160 C 
ATOM     34  C   UNL     1       2.903  -2.939   2.132  1.00  0.00    +0.041 C 
BRANCH  31  35
ATOM     35  N   UNL     1       5.052  -2.774  -1.780  1.00  0.00    -0.325 NA
ATOM     36  H   UNL     1       4.222  -3.391  -1.626  1.00  0.00    +0.119 HD
ATOM     37  H   UNL     1       5.905  -3.343  -1.576  1.00  0.00    +0.119 HD
ENDBRANCH  31  35
BRANCH  33  38
ATOM     38  O   UNL     1       5.573  -1.391   1.517  1.00  0.00    -0.389 OA
ATOM     39  H   UNL     1       5.372  -0.425   1.400  1.00  0.00    +0.211 HD
ENDBRANCH  33  38
ENDBRANCH  27  28
ENDBRANCH  14  27
BRANCH  12  40
ATOM     40  O   UNL     1       2.127   2.479  -0.083  1.00  0.00    -0.382 OA
ATOM     41  H   UNL     1       2.038   3.226   0.565  1.00  0.00    +0.212 HD
ENDBRANCH  12  40
BRANCH  12  42
ATOM     42  C   UNL     1       2.251   4.015  -1.941  1.00  0.00    +0.190 C 
ATOM     43  O   UNL     1       1.784   4.557  -2.932  1.00  0.00    -0.294 OA
BRANCH  42  44
ATOM     44  C   UNL     1       3.571   4.511  -1.406  1.00  0.00    +0.234 C 
BRANCH  44  45
ATOM     45  O   UNL     1       3.369   5.312  -0.274  1.00  0.00    -0.388 OA
ATOM     46  H   UNL     1       2.992   6.171  -0.598  1.00  0.00    +0.211 HD
ENDBRANCH  44  45
ENDBRANCH  42  44
ENDBRANCH  12  42
TORSDOF 11
