REMARK SMILES C=C1C[C@@H]2O[C@@H]3C[C@@H]4O[C@H]5CC[C@@H]6O[C@H]7C[C@H]8O[C@@H]9C[C@@H]%10O[C@H]%11CC[C@@H](CN)O[C@H]%11C[C@@H]%10O[C@H]9C[C@@H]8O[C@H]7C[C@@H]6O[C@H]5C[C@@H]4O[C@H]3C[C@@H]2O1
REMARK SMILES IDX 13 1 14 2 15 3 16 4 17 5 18 6 19 7 20 8 21 9 22 10 23 11
REMARK SMILES IDX 24 12 25 13 26 14 29 15 30 16 31 17 32 18 33 19 34 20 35 21
REMARK SMILES IDX 36 22 37 23 38 24 39 25 40 26 41 27 42 28 1 29 2 30 3 31
REMARK SMILES IDX 49 32 4 33 48 34 5 35 47 36 6 37 46 38 7 39 45 40 8 41 44 42
REMARK SMILES IDX 9 43 43 44 10 45 12 47 11 48 27 50 28 51
REMARK H PARENT 28 52 28 53
REMARK Flexibility Score:   71.900
ROOT
ATOM      1  C   UNL     1       1.156   0.783   0.160  1.00  0.00    +0.147 C 
ATOM      2  O   UNL     1       0.629  -0.383  -0.463  1.00  0.00    -0.369 OA
ATOM      3  C   UNL     1       0.372  -0.253  -1.861  1.00  0.00    +0.150 C 
ATOM      4  C   UNL     1      -0.811  -1.174  -2.239  1.00  0.00    +0.069 C 
ATOM      5  C   UNL     1      -2.142  -0.406  -2.323  1.00  0.00    +0.150 C 
ATOM      6  O   UNL     1      -3.237  -1.306  -2.134  1.00  0.00    -0.369 OA
ATOM      7  C   UNL     1      -4.036  -0.986  -1.010  1.00  0.00    +0.150 C 
ATOM      8  C   UNL     1      -5.205  -1.973  -0.891  1.00  0.00    +0.069 C 
ATOM      9  C   UNL     1      -6.317  -1.443   0.052  1.00  0.00    +0.150 C 
ATOM     10  O   UNL     1      -7.465  -1.136  -0.724  1.00  0.00    -0.369 OA
ATOM     11  C   UNL     1      -8.575  -0.699   0.051  1.00  0.00    +0.147 C 
ATOM     12  C   UNL     1      -9.297  -1.837   0.783  1.00  0.00    +0.037 C 
ATOM     13  C   UNL     1     -10.603  -1.310   1.409  1.00  0.00    +0.036 C 
ATOM     14  C   UNL     1     -10.557   0.222   1.658  1.00  0.00    +0.132 C 
ATOM     15  O   UNL     1      -9.259   0.621   2.067  1.00  0.00    -0.371 OA
ATOM     16  C   UNL     1      -8.276   0.475   1.040  1.00  0.00    +0.150 C 
ATOM     17  C   UNL     1      -6.932   0.281   1.754  1.00  0.00    +0.069 C 
ATOM     18  C   UNL     1      -5.831  -0.188   0.811  1.00  0.00    +0.150 C 
ATOM     19  O   UNL     1      -5.473   0.864  -0.074  1.00  0.00    -0.369 OA
ATOM     20  C   UNL     1      -4.599   0.460  -1.130  1.00  0.00    +0.150 C 
ATOM     21  C   UNL     1      -3.459   1.491  -1.282  1.00  0.00    +0.069 C 
ATOM     22  C   UNL     1      -2.082   0.823  -1.370  1.00  0.00    +0.150 C 
ATOM     23  O   UNL     1      -1.110   1.780  -1.777  1.00  0.00    -0.369 OA
ATOM     24  C   UNL     1       0.084   1.211  -2.321  1.00  0.00    +0.150 C 
ATOM     25  C   UNL     1       1.285   2.120  -1.982  1.00  0.00    +0.069 C 
ATOM     26  C   UNL     1       2.104   1.603  -0.777  1.00  0.00    +0.150 C 
ENDROOT
BRANCH  26  27
ATOM     27  O   UNL     1       3.213   0.872  -1.278  1.00  0.00    -0.369 OA
BRANCH  27  28
ATOM     28  C   UNL     1       3.964   0.147  -0.313  1.00  0.00    +0.150 C 
ATOM     29  C   UNL     1       9.530  -3.858   0.773  1.00  0.00    +0.054 C 
ATOM     30  C   UNL     1       9.868  -2.582   0.638  1.00  0.00    +0.092 C 
ATOM     31  C   UNL     1       9.684  -1.543   1.677  1.00  0.00    +0.110 C 
ATOM     32  O   UNL     1      10.421  -2.075  -0.521  1.00  0.00    -0.492 OA
ATOM     33  C   UNL     1      10.365  -0.317   1.045  1.00  0.00    +0.167 C 
ATOM     34  C   UNL     1      10.626  -0.674  -0.453  1.00  0.00    +0.204 C 
ATOM     35  O   UNL     1       9.649   0.881   1.320  1.00  0.00    -0.368 OA
ATOM     36  C   UNL     1       9.677   0.016  -1.437  1.00  0.00    +0.082 C 
ATOM     37  C   UNL     1       8.612   1.246   0.413  1.00  0.00    +0.150 C 
ATOM     38  C   UNL     1       8.347   0.275  -0.755  1.00  0.00    +0.151 C 
ATOM     39  C   UNL     1       7.303   1.445   1.173  1.00  0.00    +0.069 C 
ATOM     40  O   UNL     1       7.435   0.836  -1.687  1.00  0.00    -0.369 OA
ATOM     41  C   UNL     1       6.219   1.931   0.190  1.00  0.00    +0.150 C 
ATOM     42  C   UNL     1       6.154   1.084  -1.113  1.00  0.00    +0.150 C 
ATOM     43  O   UNL     1       4.951   2.107   0.815  1.00  0.00    -0.369 OA
ATOM     44  C   UNL     1       5.317  -0.200  -0.938  1.00  0.00    +0.069 C 
ATOM     45  C   UNL     1       4.255   0.887   1.034  1.00  0.00    +0.147 CG0
ATOM     46  G   UNL     1       3.014   1.171   1.922  1.00  0.00    +0.000 G0
ENDBRANCH  27  28
ENDBRANCH  26  27
BRANCH   1  47
ATOM     47  C   UNL     1       1.762   0.379   1.527  1.00  0.00    +0.037 C 
BRANCH  47  48
ATOM     48  C   UNL     1       3.014   1.171   1.922  1.00  0.00    +0.037 CG0
ATOM     49  G   UNL     1       4.255   0.887   1.034  1.00  0.00    +0.000 G0
ENDBRANCH  47  48
ENDBRANCH   1  47
BRANCH  14  50
ATOM     50  C   UNL     1     -11.561   0.645   2.741  1.00  0.00    +0.109 C 
BRANCH  50  51
ATOM     51  N   UNL     1     -12.918   0.205   2.412  1.00  0.00    -0.328 NA
ATOM     52  H   UNL     1     -13.555   0.559   3.160  1.00  0.00    +0.118 HD
ATOM     53  H   UNL     1     -13.214   0.675   1.525  1.00  0.00    +0.118 HD
ENDBRANCH  50  51
ENDBRANCH  14  50
TORSDOF 2
