REMARK SMILES C=C1C[C@@H]2CC[C@@]34C[C@H]5O[C@H]6[C@@H](O3)[C@H]3O[C@H](CC[C@@H]3O[C@H]6[C@H]5O4)CC(=O)C[C@@H]3[C@@H](OC)[C@@H](C[C@H](O)CN)O[C@H]3C[C@H]3O[C@@H](CC[C@@H]1O2)C[C@@H](C)C3=C
REMARK SMILES IDX 25 1 26 2 27 3 28 4 39 5 38 6 29 7 32 8 40 9 41 10 49 11
REMARK SMILES IDX 48 12 51 13 43 14 52 15 42 16 50 17 44 18 30 20 31 21 33 22
REMARK SMILES IDX 34 23 36 24 37 25 35 28 24 30 16 31 17 32 15 33 18 34 14 35
REMARK SMILES IDX 19 36 12 37 20 38 11 39 13 40 21 41 10 42 7 43 22 44 9 45
REMARK SMILES IDX 8 46 23 47 6 48 5 49 4 50 3 51 47 52 2 53 46 54 1 55 45 56
REMARK H PARENT 37 26 37 27 35 29
REMARK Flexibility Score:  224.900
ROOT
ATOM      1  C   UNL     1       1.153  -0.306   2.719  1.00  0.00    +0.135 C 
ATOM      2  O   UNL     1       1.259  -0.904   3.792  1.00  0.00    -0.300 OA
ENDROOT
BRANCH   1   3
ATOM      3  C   UNL     1       2.364   0.382   2.117  1.00  0.00    +0.084 C 
BRANCH   3   4
ATOM      4  C   UNL     1       2.964  -0.362   0.926  1.00  0.00    +0.057 C 
ATOM      5  C   UNL     1       4.427  -0.006   0.679  1.00  0.00    +0.127 C 
ATOM      6  O   UNL     1       4.951  -1.058  -0.155  1.00  0.00    -0.372 OA
ATOM      7  C   UNL     1       3.104  -1.873   1.103  1.00  0.00    +0.153 C 
ATOM      8  C   UNL     1       4.118  -2.229  -0.002  1.00  0.00    +0.150 C 
BRANCH   5   9
ATOM      9  C   UNL     1       4.750   1.357   0.066  1.00  0.00    +0.069 C 
BRANCH   9  10
ATOM     10  C   UNL     1       4.091   1.603  -1.299  1.00  0.00    +0.147 C 
ATOM     11  C   UNL     1       4.474   3.836  -2.518  1.00  0.00    +0.016 C 
ATOM     12  C   UNL     1       3.020   3.753  -2.993  1.00  0.00    +0.040 C 
ATOM     13  C   UNL     1       4.967   2.445  -2.210  1.00  0.00    -0.046 C 
ATOM     14  C   UNL     1       2.187   2.692  -2.249  1.00  0.00    +0.119 C 
ATOM     15  C   UNL     1       6.079   1.949  -2.782  1.00  0.00    +0.011 C 
ATOM     16  O   UNL     1       2.840   2.271  -1.050  1.00  0.00    -0.371 OA
ATOM     17  C   UNL     1       4.636   4.773  -1.317  1.00  0.00    +0.012 C 
BRANCH  14  18
ATOM     18  C   UNL     1       0.802   3.257  -1.905  1.00  0.00    +0.035 CG0
ATOM     19  G   UNL     1      -0.064   2.271  -1.121  1.00  0.00    +0.000 G0
ENDBRANCH  14  18
ENDBRANCH   9  10
ENDBRANCH   5   9
BRANCH   7  20
ATOM     20  O   UNL     1       1.847  -2.523   0.979  1.00  0.00    -0.378 OA
ATOM     21  C   UNL     1       1.840  -3.812   1.581  1.00  0.00    +0.195 C 
ENDBRANCH   7  20
BRANCH   8  22
ATOM     22  C   UNL     1       3.484  -2.573  -1.361  1.00  0.00    +0.068 C 
BRANCH  22  23
ATOM     23  C   UNL     1       4.424  -3.184  -2.413  1.00  0.00    +0.130 C 
BRANCH  23  24
ATOM     24  C   UNL     1       5.500  -2.244  -2.999  1.00  0.00    +0.109 C 
BRANCH  24  25
ATOM     25  N   UNL     1       6.650  -2.024  -2.120  1.00  0.00    -0.328 NA
ATOM     26  H   UNL     1       6.924  -2.946  -1.767  1.00  0.00    +0.118 HD
ATOM     27  H   UNL     1       6.307  -1.538  -1.281  1.00  0.00    +0.118 HD
ENDBRANCH  24  25
ENDBRANCH  23  24
BRANCH  23  28
ATOM     28  O   UNL     1       5.051  -4.359  -1.885  1.00  0.00    -0.392 OA
ATOM     29  H   UNL     1       4.356  -5.031  -1.773  1.00  0.00    +0.211 HD
ENDBRANCH  23  28
ENDBRANCH  22  23
ENDBRANCH   8  22
ENDBRANCH   3   4
ENDBRANCH   1   3
BRANCH   1  30
ATOM     30  C   UNL     1      -0.153  -0.218   1.955  1.00  0.00    +0.107 C 
BRANCH  30  31
ATOM     31  C   UNL     1      -1.284  -0.984   2.647  1.00  0.00    +0.126 C 
ATOM     32  C   UNL     1      -1.889  -0.161   3.797  1.00  0.00    +0.035 C 
ATOM     33  O   UNL     1      -2.283  -1.285   1.655  1.00  0.00    -0.369 OA
ATOM     34  C   UNL     1      -3.117  -0.846   4.387  1.00  0.00    +0.037 C 
ATOM     35  C   UNL     1      -3.399  -1.999   2.198  1.00  0.00    +0.179 C 
ATOM     36  C   UNL     1      -4.112  -1.171   3.274  1.00  0.00    +0.150 C 
ATOM     37  C   UNL     1      -4.384  -2.439   1.092  1.00  0.00    +0.185 C 
ATOM     38  O   UNL     1      -5.229  -1.861   3.841  1.00  0.00    -0.367 OA
ATOM     39  C   UNL     1      -5.541  -3.194   1.769  1.00  0.00    +0.182 C 
ATOM     40  O   UNL     1      -4.704  -1.368   0.190  1.00  0.00    -0.341 OA
ATOM     41  C   UNL     1      -6.157  -2.396   2.904  1.00  0.00    +0.182 C 
ATOM     42  O   UNL     1      -6.627  -3.437   0.866  1.00  0.00    -0.366 OA
ATOM     43  C   UNL     1      -5.908  -0.624   0.288  1.00  0.00    +0.172 C 
ATOM     44  C   UNL     1      -7.037  -1.425   2.132  1.00  0.00    +0.182 C 
ATOM     45  C   UNL     1      -7.460  -2.260   0.914  1.00  0.00    +0.156 C 
ATOM     46  C   UNL     1      -7.100  -1.395  -0.266  1.00  0.00    +0.100 C 
ATOM     47  O   UNL     1      -6.279  -0.316   1.628  1.00  0.00    -0.341 OA
BRANCH  43  48
ATOM     48  C   UNL     1      -5.710   0.692  -0.488  1.00  0.00    +0.069 C 
BRANCH  48  49
ATOM     49  C   UNL     1      -4.512   1.537  -0.021  1.00  0.00    +0.038 C 
BRANCH  49  50
ATOM     50  C   UNL     1      -3.159   1.148  -0.641  1.00  0.00    +0.123 C 
ATOM     51  C   UNL     1      -3.036   1.472  -2.127  1.00  0.00    +0.065 C 
ATOM     52  O   UNL     1      -2.129   1.897   0.047  1.00  0.00    -0.370 OA
ATOM     53  C   UNL     1      -2.359   2.797  -2.085  1.00  0.00    -0.046 C 
ATOM     54  C   UNL     1      -1.484   2.798  -0.871  1.00  0.00    +0.144 C 
ATOM     55  C   UNL     1      -2.605   3.828  -2.904  1.00  0.00    +0.010 C 
BRANCH  54  56
ATOM     56  C   UNL     1      -0.064   2.271  -1.121  1.00  0.00    +0.039 CG0
ATOM     57  G   UNL     1       0.802   3.257  -1.905  1.00  0.00    +0.000 G0
ENDBRANCH  54  56
ENDBRANCH  49  50
ENDBRANCH  48  49
ENDBRANCH  43  48
ENDBRANCH  30  31
ENDBRANCH   1  30
TORSDOF 6
