REMARK SMILES C=C1C[C@]23C[C@@H]4C[C@H]5C[C@@H]6C[C@@H](O2)[C@@H](C[C@@]6(O4)[C@H]2CC[C@@H]4O[C@@H]6C[C@H]4O[C@@]2(C[C@H](O)C6=C)O5)O[C@@H]3[C@@H]1C
REMARK SMILES IDX 27 1 33 2 8 3 16 4 15 5 14 6 34 7 35 8 36 9 37 10 2 11 1 12
REMARK SMILES IDX 3 13 4 14 13 15 12 16 11 17 10 18 9 19 18 20 28 22 29 23
REMARK SMILES IDX 31 24 32 25 30 27 26 29 25 30 24 31 21 32 23 33 22 34 19 37
REMARK SMILES IDX 20 38 7 40 17 42 6 43 5 45
REMARK H PARENT 30 28
REMARK Flexibility Score:   23.600
ROOT
ATOM      1  C   UNL     1      -2.871   0.291   0.000  1.00  0.00    +0.177 C 
ATOM      2  O   UNL     1      -2.485   1.357   0.000  1.00  0.00    -0.346 OA
ATOM      3  C   UNL     1      -4.157   2.950   0.000  1.00  0.00    +0.124 C 
ATOM      4  C   UNL     1       0.561   1.168   0.000  1.00  0.00    +0.082 C 
ATOM      5  C   UNL     1       2.114  -2.318   0.000  1.00  0.00    +0.071 C 
ATOM      6  C   UNL     1       2.551  -0.786   0.000  1.00  0.00    +0.150 C 
ATOM      7  O   UNL     1       3.800  -0.711   0.000  1.00  0.00    -0.369 OA
ATOM      8  C   UNL     1       4.717  -1.322   0.000  1.00  0.00    +0.158 C 
ATOM      9  C   UNL     1       5.513  -2.704   0.000  1.00  0.00    +0.043 C 
ATOM     10  C   UNL     1       6.124  -4.066   0.000  1.00  0.00    +0.015 C 
ATOM     11  C   UNL     1       7.426  -1.752   0.000  1.00  0.00    -0.069 C 
ATOM     12  C   UNL     1       8.519  -1.284   0.000  1.00  0.00    +0.008 C 
ATOM     13  C   UNL     1       7.578  -0.130   0.000  1.00  0.00    +0.069 C 
ATOM     14  C   UNL     1       5.381   0.417   0.000  1.00  0.00    +0.101 CG2
ATOM     15  O   UNL     1       3.745   1.462   0.000  1.00  0.00    -0.366 OA
ATOM     16  C   UNL     1       2.605   0.781   0.000  1.00  0.00    +0.148 C 
ATOM     17  C   UNL     1       0.417   2.627   0.000  1.00  0.00    +0.041 C 
ATOM     18  C   UNL     1      -0.720   2.523   0.000  1.00  0.00    +0.027 C 
ATOM     19  C   UNL     1      -1.420   3.935   0.000  1.00  0.00    +0.039 C 
ATOM     20  C   UNL     1      -0.867   0.387   0.000  1.00  0.00    +0.082 C 
ATOM     21  G   UNL     1       4.602   2.005   0.000  1.00  0.00    +0.000 G2
ENDROOT
BRANCH   1  22
ATOM     22  C   UNL     1      -4.326   0.413   0.000  1.00  0.00    +0.102 C 
BRANCH  22  23
ATOM     23  C   UNL     1      -5.216  -0.264   0.000  1.00  0.00    +0.148 C 
BRANCH  23  24
ATOM     24  C   UNL     1      -6.844  -0.835   0.000  1.00  0.00    -0.020 CG0
ATOM     25  C   UNL     1      -7.977   0.698   0.000  1.00  0.00    +0.013 C 
ATOM     26  G   UNL     1      -6.514  -2.940   0.000  1.00  0.00    +0.000 G0
ENDBRANCH  23  24
BRANCH  23  27
ATOM     27  O   UNL     1      -5.973   0.631   0.000  1.00  0.00    -0.388 OA
ATOM     28  H   UNL     1      -5.953   2.038   0.000  1.00  0.00    +0.211 HD
ENDBRANCH  23  27
ENDBRANCH  22  23
ENDBRANCH   1  22
BRANCH   1  29
ATOM     29  O   UNL     1      -1.996   0.982   0.000  1.00  0.00    -0.343 OA
BRANCH  29  30
ATOM     30  C   UNL     1      -3.065  -1.423   0.000  1.00  0.00    +0.153 C 
ATOM     31  C   UNL     1      -6.764  -1.890   0.000  1.00  0.00    +0.071 C 
ATOM     32  C   UNL     1      -3.367  -2.853   0.000  1.00  0.00    +0.148 CG3
ATOM     33  C   UNL     1      -6.514  -2.940   0.000  1.00  0.00    +0.149 CG0
ATOM     34  O   UNL     1      -4.889  -3.276   0.000  1.00  0.00    -0.368 OA
ATOM     35  G   UNL     1      -6.844  -0.835   0.000  1.00  0.00    +0.000 G0
ATOM     36  G   UNL     1      -1.989  -1.926   0.000  1.00  0.00    +0.000 G3
ENDBRANCH  29  30
ENDBRANCH   1  29
BRANCH  20  37
ATOM     37  C   UNL     1      -0.255  -0.577   0.000  1.00  0.00    +0.015 C 
BRANCH  37  38
ATOM     38  C   UNL     1      -1.989  -1.926   0.000  1.00  0.00    +0.035 CG3
ATOM     39  G   UNL     1      -3.367  -2.853   0.000  1.00  0.00    +0.000 G3
ENDBRANCH  37  38
ENDBRANCH  20  37
BRANCH   3  40
ATOM     40  C   UNL     1      -1.315   4.441   0.000  1.00  0.00    +0.064 CG1
ATOM     41  G   UNL     1       2.421   3.155   0.000  1.00  0.00    +0.000 G1
ENDBRANCH   3  40
BRANCH   4  42
ATOM     42  O   UNL     1       3.341   3.291   0.000  1.00  0.00    -0.371 OA
BRANCH  42  43
ATOM     43  C   UNL     1       2.421   3.155   0.000  1.00  0.00    +0.124 CG1
ATOM     44  G   UNL     1      -1.315   4.441   0.000  1.00  0.00    +0.000 G1
BRANCH  43  45
ATOM     45  C   UNL     1       4.602   2.005   0.000  1.00  0.00    +0.070 CG2
ATOM     46  G   UNL     1       5.381   0.417   0.000  1.00  0.00    +0.000 G2
ENDBRANCH  43  45
ENDBRANCH  42  43
ENDBRANCH   4  42
TORSDOF 1
