REMARK SMILES C#Cc1cccc(Nc2ncnc3cc(OCCOC)c(OCCOC)cc23)c1
REMARK SMILES IDX 15 1 14 2 13 3 12 4 11 5 10 6 9 7 28 8 27 9 21 10 16 11
REMARK SMILES IDX 17 12 18 13 19 14 20 15 22 16 23 17 24 18 25 19 26 20 8 21
REMARK SMILES IDX 7 23 6 24 29 25 5 26 3 27 4 28 2 29 1 30
REMARK H PARENT 8 22
ROOT
ATOM      1  C   UNL     1      -2.284   0.868   0.484  1.00  0.00    +0.163 A 
ATOM      2  C   UNL     1      -1.512   1.787   1.219  1.00  0.00    +0.079 A 
ATOM      3  C   UNL     1      -0.151   1.558   1.434  1.00  0.00    +0.080 A 
ATOM      4  N   UNL     1       0.575   2.448   2.158  1.00  0.00    -0.236 NA
ATOM      5  C   UNL     1       1.896   2.250   2.389  1.00  0.00    +0.224 A 
ATOM      6  N   UNL     1       2.518   1.153   1.887  1.00  0.00    -0.219 NA
ATOM      7  C   UNL     1       1.846   0.221   1.157  1.00  0.00    +0.141 A 
ATOM      8  C   UNL     1       0.467   0.403   0.911  1.00  0.00    +0.047 A 
ATOM      9  C   UNL     1      -0.311  -0.528   0.198  1.00  0.00    +0.064 A 
ATOM     10  C   UNL     1      -1.683  -0.293  -0.025  1.00  0.00    +0.162 A 
ENDROOT
BRANCH   1  11
ATOM     11  O   UNL     1      -3.655   1.062   0.240  1.00  0.00    -0.487 OA
BRANCH  11  12
ATOM     12  C   UNL     1      -4.403   2.235   0.561  1.00  0.00    +0.258 C 
BRANCH  12  13
ATOM     13  C   UNL     1      -4.090   3.363  -0.419  1.00  0.00    +0.201 C 
BRANCH  13  14
ATOM     14  O   UNL     1      -4.878   4.488  -0.095  1.00  0.00    -0.381 OA
ATOM     15  C   UNL     1      -4.597   5.532  -1.000  1.00  0.00    +0.195 C 
ENDBRANCH  13  14
ENDBRANCH  12  13
ENDBRANCH  11  12
ENDBRANCH   1  11
BRANCH  10  16
ATOM     16  O   UNL     1      -2.493  -1.192  -0.742  1.00  0.00    -0.487 OA
BRANCH  16  17
ATOM     17  C   UNL     1      -2.039  -2.337  -1.465  1.00  0.00    +0.258 C 
BRANCH  17  18
ATOM     18  C   UNL     1      -1.335  -1.925  -2.761  1.00  0.00    +0.201 C 
BRANCH  18  19
ATOM     19  O   UNL     1      -2.162  -1.065  -3.524  1.00  0.00    -0.381 OA
ATOM     20  C   UNL     1      -2.864  -1.797  -4.504  1.00  0.00    +0.195 C 
ENDBRANCH  18  19
ENDBRANCH  17  18
ENDBRANCH  16  17
ENDBRANCH  10  16
BRANCH   7  21
ATOM     21  N   UNL     1       2.570  -0.890   0.601  1.00  0.00    -0.340 N 
ATOM     22  H   UNL     1       2.342  -1.192  -0.373  1.00  0.00    +0.168 HD
BRANCH  21  23
ATOM     23  C   UNL     1       3.709  -1.492   1.241  1.00  0.00    +0.041 A 
ATOM     24  C   UNL     1       3.845  -1.495   2.642  1.00  0.00    +0.026 A 
ATOM     25  C   UNL     1       4.681  -2.136   0.458  1.00  0.00    +0.043 A 
ATOM     26  C   UNL     1       4.950  -2.104   3.242  1.00  0.00    +0.003 A 
ATOM     27  C   UNL     1       5.788  -2.747   1.062  1.00  0.00    +0.026 A 
ATOM     28  C   UNL     1       5.922  -2.726   2.456  1.00  0.00    +0.017 A 
ATOM     29  C   UNL     1       6.786  -3.395   0.252  1.00  0.00    -0.070 C 
ATOM     30  C   UNL     1       7.621  -3.939  -0.427  1.00  0.00    +0.010 C 
ENDBRANCH  21  23
ENDBRANCH   7  21
TORSDOF 10
