REMARK SMILES C#Cc1cccc(Nc2ncnc3cc(OCCOC)c(OCCOC)cc23)c1
REMARK SMILES IDX 21 1 15 2 14 3 13 4 28 5 27 6 9 7 10 8 11 9 12 10 22 11
REMARK SMILES IDX 23 12 24 13 25 14 26 15 16 16 17 17 18 18 19 19 20 20 8 21
REMARK SMILES IDX 7 23 6 24 29 25 5 26 3 27 4 28 2 29 1 30
REMARK H PARENT 8 22
ROOT
ATOM      1  C   UNL     1      -0.207  -0.190   1.246  1.00  0.00    +0.162 A 
ATOM      2  C   UNL     1      -0.741  -1.378   1.750  1.00  0.00    +0.163 A 
ATOM      3  C   UNL     1      -0.446  -2.583   1.102  1.00  0.00    +0.079 A 
ATOM      4  C   UNL     1       0.347  -2.634  -0.040  1.00  0.00    +0.080 A 
ATOM      5  C   UNL     1       0.881  -1.444  -0.551  1.00  0.00    +0.047 A 
ATOM      6  C   UNL     1       0.613  -0.226   0.119  1.00  0.00    +0.064 A 
ATOM      7  C   UNL     1       1.669  -1.576  -1.713  1.00  0.00    +0.141 A 
ATOM      8  N   UNL     1       1.909  -2.776  -2.272  1.00  0.00    -0.219 NA
ATOM      9  C   UNL     1       1.350  -3.838  -1.688  1.00  0.00    +0.224 A 
ATOM     10  N   UNL     1       0.574  -3.825  -0.599  1.00  0.00    -0.236 NA
ENDROOT
BRANCH   1  11
ATOM     11  O   UNL     1      -0.381   1.052   1.795  1.00  0.00    -0.487 OA
BRANCH  11  12
ATOM     12  C   UNL     1      -1.750   1.375   2.086  1.00  0.00    +0.258 C 
BRANCH  12  13
ATOM     13  C   UNL     1      -1.942   2.880   1.897  1.00  0.00    +0.201 C 
BRANCH  13  14
ATOM     14  O   UNL     1      -1.928   3.196   0.499  1.00  0.00    -0.381 OA
ATOM     15  C   UNL     1      -2.062   4.593   0.280  1.00  0.00    +0.195 C 
ENDBRANCH  13  14
ENDBRANCH  12  13
ENDBRANCH  11  12
ENDBRANCH   1  11
BRANCH   2  16
ATOM     16  O   UNL     1      -1.464  -1.319   2.911  1.00  0.00    -0.487 OA
BRANCH  16  17
ATOM     17  C   UNL     1      -2.557  -2.243   3.005  1.00  0.00    +0.258 C 
BRANCH  17  18
ATOM     18  C   UNL     1      -3.524  -1.739   4.076  1.00  0.00    +0.201 C 
BRANCH  18  19
ATOM     19  O   UNL     1      -4.229  -0.593   3.583  1.00  0.00    -0.381 OA
ATOM     20  C   UNL     1      -5.119  -0.068   4.558  1.00  0.00    +0.195 C 
ENDBRANCH  18  19
ENDBRANCH  17  18
ENDBRANCH  16  17
ENDBRANCH   2  16
BRANCH   7  21
ATOM     21  N   UNL     1       2.210  -0.404  -2.309  1.00  0.00    -0.340 N 
ATOM     22  H   UNL     1       1.463   0.271  -2.443  1.00  0.00    +0.168 HD
BRANCH  21  23
ATOM     23  C   UNL     1       3.195  -0.294  -3.316  1.00  0.00    +0.041 A 
ATOM     24  C   UNL     1       4.209  -1.244  -3.493  1.00  0.00    +0.026 A 
ATOM     25  C   UNL     1       3.244   0.873  -4.095  1.00  0.00    +0.043 A 
ATOM     26  C   UNL     1       5.205  -1.067  -4.458  1.00  0.00    +0.003 A 
ATOM     27  C   UNL     1       4.239   1.056  -5.063  1.00  0.00    +0.026 A 
ATOM     28  C   UNL     1       5.217   0.080  -5.248  1.00  0.00    +0.017 A 
ATOM     29  C   UNL     1       4.255   2.246  -5.856  1.00  0.00    -0.070 C 
ATOM     30  C   UNL     1       4.269   3.245  -6.523  1.00  0.00    +0.010 C 
ENDBRANCH  21  23
ENDBRANCH   7  21
TORSDOF 10
