REMARK SMILES COc1cc([C@H]2[C]3C(=O)OC[C@@H]3[C@H](O[C@@H]3O[C@H]4COC(C)O[C@H]4[C@H]3O)c3cc4c(cc32)OCO4)cc(OC)c1O
REMARK SMILES IDX 6 1 31 2 30 3 29 4 28 5 27 6 26 7 13 8 12 9 11 10 10 11 8 12
REMARK SMILES IDX 9 13 7 14 34 15 33 16 32 17 5 18 3 19 4 20 39 21 36 22 35 23
REMARK SMILES IDX 2 24 1 25 40 26 37 28 38 29 14 30 15 31 16 32 24 33 17 34
REMARK SMILES IDX 23 35 18 36 22 37 19 38 20 39 21 40 25 41
REMARK H PARENT 40 27 25 42
ROOT
ATOM      1  C   UNL     1      -1.673   0.492   0.080  1.00  0.00    +0.069 C 
ATOM      2  C   UNL     1      -1.363  -0.346   1.303  1.00  0.00    -0.030 A 
ATOM      3  C   UNL     1      -2.347  -1.109   1.995  1.00  0.00    +0.055 A 
ATOM      4  C   UNL     1      -1.942  -1.858   3.094  1.00  0.00    +0.166 A 
ATOM      5  C   UNL     1      -0.659  -1.866   3.520  1.00  0.00    +0.166 A 
ATOM      6  C   UNL     1       0.339  -1.133   2.889  1.00  0.00    +0.057 A 
ATOM      7  C   UNL     1      -0.017  -0.350   1.766  1.00  0.00    -0.011 A 
ATOM      8  C   UNL     1       1.051   0.435   1.015  1.00  0.00    +0.160 C 
ATOM      9  C   UNL     1       0.478   1.797   0.465  1.00  0.00    +0.080 C 
ATOM     10  C   UNL     1       1.046   2.269  -0.903  1.00  0.00    +0.240 C 
ATOM     11  O   UNL     1      -0.005   2.973  -1.525  1.00  0.00    -0.465 OA
ATOM     12  C   UNL     1      -1.190   2.789  -0.863  1.00  0.00    +0.314 C 
ATOM     13  O   UNL     1      -2.234   3.445  -1.147  1.00  0.00    -0.252 OA
ATOM     14  C   UNL     1      -1.067   1.879   0.313  1.00  0.00    +0.105 C 
ATOM     15  O   UNL     1      -0.547  -2.688   4.626  1.00  0.00    -0.454 OA
ATOM     16  C   UNL     1      -1.838  -3.238   4.908  1.00  0.00    +0.468 C 
ATOM     17  O   UNL     1      -2.701  -2.695   3.898  1.00  0.00    -0.454 OA
ENDROOT
BRANCH   1  18
ATOM     18  C   UNL     1      -3.140   0.474  -0.336  1.00  0.00    -0.032 A 
ATOM     19  C   UNL     1      -5.351   1.498  -0.470  1.00  0.00    +0.164 A 
ATOM     20  C   UNL     1      -4.039   1.484   0.050  1.00  0.00    +0.055 A 
ATOM     21  C   UNL     1      -5.795   0.424  -1.256  1.00  0.00    +0.200 A 
ATOM     22  C   UNL     1      -4.943  -0.650  -1.532  1.00  0.00    +0.164 A 
ATOM     23  C   UNL     1      -3.609  -0.614  -1.088  1.00  0.00    +0.055 A 
BRANCH  19  24
ATOM     24  O   UNL     1      -6.235   2.572  -0.240  1.00  0.00    -0.493 OA
ATOM     25  C   UNL     1      -5.865   3.846   0.312  1.00  0.00    +0.278 C 
ENDBRANCH  19  24
BRANCH  21  26
ATOM     26  O   UNL     1      -7.085   0.420  -1.792  1.00  0.00    -0.502 OA
ATOM     27  H   UNL     1      -7.701   1.226  -1.744  1.00  0.00    +0.293 HD
ENDBRANCH  21  26
BRANCH  22  28
ATOM     28  O   UNL     1      -5.459  -1.728  -2.268  1.00  0.00    -0.493 OA
ATOM     29  C   UNL     1      -4.767  -2.947  -2.506  1.00  0.00    +0.278 C 
ENDBRANCH  22  28
ENDBRANCH   1  18
BRANCH   8  30
ATOM     30  O   UNL     1       1.529  -0.401  -0.033  1.00  0.00    -0.341 OA
BRANCH  30  31
ATOM     31  C   UNL     1       2.948  -0.420  -0.150  1.00  0.00    +0.282 C 
ATOM     32  O   UNL     1       3.493   0.887  -0.084  1.00  0.00    -0.341 OA
ATOM     33  C   UNL     1       3.314  -1.029  -1.508  1.00  0.00    +0.202 C 
ATOM     34  C   UNL     1       4.471   1.046  -1.087  1.00  0.00    +0.179 C 
ATOM     35  C   UNL     1       4.479  -0.174  -1.995  1.00  0.00    +0.186 C 
ATOM     36  C   UNL     1       5.829   1.210  -0.436  1.00  0.00    +0.198 C 
ATOM     37  O   UNL     1       5.744  -0.810  -2.091  1.00  0.00    -0.344 OA
ATOM     38  O   UNL     1       6.211  -0.011   0.143  1.00  0.00    -0.350 OA
ATOM     39  C   UNL     1       6.417  -1.012  -0.851  1.00  0.00    +0.247 C 
ATOM     40  C   UNL     1       7.913  -1.129  -1.141  1.00  0.00    +0.071 C 
BRANCH  33  41
ATOM     41  O   UNL     1       3.592  -2.402  -1.484  1.00  0.00    -0.385 OA
ATOM     42  H   UNL     1       4.092  -2.600  -0.655  1.00  0.00    +0.211 HD
ENDBRANCH  33  41
ENDBRANCH  30  31
ENDBRANCH   8  30
TORSDOF 7
