REMARK SMILES COc1cc([C@@H]2c3cc4c(cc3[C@@H](O[C@@H]3O[C@@H]5CO[C@@H](C)O[C@@H]5[C@H](O)[C@H]3O)[C@H]3COC(=O)[C@H]23)OCO4)cc(OC)c1O
REMARK SMILES IDX 6 1 7 2 8 3 9 4 36 5 35 6 34 7 10 8 11 9 12 10 13 11 28 12
REMARK SMILES IDX 29 13 30 14 31 15 32 16 33 17 5 18 3 19 4 20 41 21 38 22
REMARK SMILES IDX 37 23 2 24 1 25 42 26 39 28 40 29 14 30 15 31 16 32 26 33
REMARK SMILES IDX 17 34 24 35 18 36 23 37 19 38 22 39 20 40 21 41 27 42 25 44
REMARK H PARENT 42 27 27 43 25 45
ROOT
ATOM      1  C   UNL     1       1.751   0.300  -0.457  1.00  0.00    +0.065 C 
ATOM      2  C   UNL     1       1.501  -1.002  -1.241  1.00  0.00    -0.030 A 
ATOM      3  C   UNL     1       2.468  -2.019  -1.424  1.00  0.00    +0.055 A 
ATOM      4  C   UNL     1       2.072  -3.192  -2.059  1.00  0.00    +0.166 A 
ATOM      5  O   UNL     1       2.818  -4.330  -2.299  1.00  0.00    -0.454 OA
ATOM      6  C   UNL     1       1.984  -5.272  -2.986  1.00  0.00    +0.468 C 
ATOM      7  O   UNL     1       0.720  -4.609  -3.137  1.00  0.00    -0.454 OA
ATOM      8  C   UNL     1       0.822  -3.358  -2.561  1.00  0.00    +0.166 A 
ATOM      9  C   UNL     1      -0.132  -2.350  -2.517  1.00  0.00    +0.057 A 
ATOM     10  C   UNL     1       0.219  -1.135  -1.895  1.00  0.00    -0.011 A 
ATOM     11  C   UNL     1      -0.587   0.129  -2.202  1.00  0.00    +0.159 C 
ATOM     12  C   UNL     1       0.485   1.174  -2.530  1.00  0.00    +0.076 C 
ATOM     13  C   UNL     1       0.191   2.522  -3.181  1.00  0.00    +0.240 C 
ATOM     14  O   UNL     1       1.433   3.203  -2.975  1.00  0.00    -0.465 OA
ATOM     15  C   UNL     1       2.159   2.574  -1.963  1.00  0.00    +0.310 C 
ATOM     16  O   UNL     1       3.390   2.766  -1.777  1.00  0.00    -0.252 OA
ATOM     17  C   UNL     1       1.299   1.560  -1.288  1.00  0.00    +0.120 C 
ENDROOT
BRANCH   1  18
ATOM     18  C   UNL     1       2.963   0.434   0.478  1.00  0.00    -0.032 A 
ATOM     19  C   UNL     1       4.445   1.845   1.841  1.00  0.00    +0.164 A 
ATOM     20  C   UNL     1       3.396   1.703   0.916  1.00  0.00    +0.055 A 
ATOM     21  C   UNL     1       5.020   0.697   2.409  1.00  0.00    +0.200 A 
ATOM     22  C   UNL     1       4.507  -0.568   2.107  1.00  0.00    +0.164 A 
ATOM     23  C   UNL     1       3.449  -0.684   1.188  1.00  0.00    +0.055 A 
BRANCH  19  24
ATOM     24  O   UNL     1       4.923   3.106   2.236  1.00  0.00    -0.493 OA
ATOM     25  C   UNL     1       4.403   4.350   1.778  1.00  0.00    +0.278 C 
ENDBRANCH  19  24
BRANCH  21  26
ATOM     26  O   UNL     1       6.081   0.799   3.309  1.00  0.00    -0.502 OA
ATOM     27  H   UNL     1       6.475   1.690   3.584  1.00  0.00    +0.293 HD
ENDBRANCH  21  26
BRANCH  22  28
ATOM     28  O   UNL     1       5.061  -1.685   2.757  1.00  0.00    -0.493 OA
ATOM     29  C   UNL     1       4.676  -3.034   2.513  1.00  0.00    +0.278 C 
ENDBRANCH  22  28
ENDBRANCH   1  18
BRANCH  11  30
ATOM     30  O   UNL     1      -1.336   0.547  -1.074  1.00  0.00    -0.341 OA
BRANCH  30  31
ATOM     31  C   UNL     1      -2.592  -0.107  -0.979  1.00  0.00    +0.282 C 
ATOM     32  O   UNL     1      -3.559   0.906  -0.717  1.00  0.00    -0.341 OA
ATOM     33  C   UNL     1      -2.508  -1.193   0.147  1.00  0.00    +0.202 C 
ATOM     34  C   UNL     1      -4.721   0.361  -0.126  1.00  0.00    +0.179 C 
ATOM     35  C   UNL     1      -3.013  -0.625   1.488  1.00  0.00    +0.180 C 
ATOM     36  C   UNL     1      -5.881   1.347  -0.235  1.00  0.00    +0.198 C 
ATOM     37  C   UNL     1      -4.430   0.011   1.352  1.00  0.00    +0.184 C 
ATOM     38  O   UNL     1      -5.752   2.414   0.675  1.00  0.00    -0.350 OA
ATOM     39  O   UNL     1      -4.495   1.141   2.210  1.00  0.00    -0.344 OA
ATOM     40  C   UNL     1      -5.646   1.943   2.008  1.00  0.00    +0.247 C 
ATOM     41  C   UNL     1      -6.937   1.308   2.559  1.00  0.00    +0.071 C 
BRANCH  33  42
ATOM     42  O   UNL     1      -3.280  -2.317  -0.197  1.00  0.00    -0.385 OA
ATOM     43  H   UNL     1      -2.762  -2.828  -0.870  1.00  0.00    +0.211 HD
ENDBRANCH  33  42
BRANCH  35  44
ATOM     44  O   UNL     1      -2.092   0.335   1.955  1.00  0.00    -0.387 OA
ATOM     45  H   UNL     1      -1.300  -0.165   2.288  1.00  0.00    +0.211 HD
ENDBRANCH  35  44
ENDBRANCH  30  31
ENDBRANCH  11  30
TORSDOF 8
