REMARK SMILES COc1cc([C@@H]2c3cc4c(cc3[C@@H](O[C@@H]3O[C@@H]5CO[C@@H](C)O[C@H]5[C@H](O)[C@H]3O)[C@H]3COC(=O)[C@H]23)OCO4)cc(OC)c1O
REMARK SMILES IDX 13 1 28 2 29 3 30 4 31 5 32 6 33 7 6 8 7 9 8 10 9 11 10 12
REMARK SMILES IDX 11 13 12 14 34 15 35 16 36 17 14 18 15 19 20 20 19 21 22 22
REMARK SMILES IDX 18 23 23 24 17 25 24 26 16 27 26 28 21 29 25 30 27 32 5 34
REMARK SMILES IDX 37 35 4 36 38 37 3 38 41 39 39 40 40 41 2 42 1 43 42 44
REMARK H PARENT 25 31 27 33 42 45
ROOT
ATOM      1  C   UNL     1       0.301   1.132   0.406  1.00  0.00    +0.159 C 
ATOM      2  C   UNL     1      -0.155   0.321  -0.800  1.00  0.00    +0.076 C 
ATOM      3  C   UNL     1       0.807   0.137  -1.943  1.00  0.00    +0.240 C 
ATOM      4  O   UNL     1       0.320  -1.032  -2.619  1.00  0.00    -0.465 OA
ATOM      5  C   UNL     1      -0.375  -1.811  -1.728  1.00  0.00    +0.310 C 
ATOM      6  O   UNL     1      -0.805  -2.924  -1.979  1.00  0.00    -0.252 OA
ATOM      7  C   UNL     1      -0.413  -1.118  -0.399  1.00  0.00    +0.120 C 
ATOM      8  C   UNL     1      -1.662  -1.222   0.476  1.00  0.00    +0.065 C 
ATOM      9  C   UNL     1      -1.530  -0.227   1.643  1.00  0.00    -0.030 A 
ATOM     10  C   UNL     1      -2.344  -0.423   2.777  1.00  0.00    +0.055 A 
ATOM     11  C   UNL     1      -2.269   0.492   3.803  1.00  0.00    +0.166 A 
ATOM     12  C   UNL     1      -1.432   1.578   3.743  1.00  0.00    +0.166 A 
ATOM     13  C   UNL     1      -0.616   1.812   2.658  1.00  0.00    +0.057 A 
ATOM     14  C   UNL     1      -0.648   0.903   1.582  1.00  0.00    -0.011 A 
ATOM     15  O   UNL     1      -1.513   2.358   4.854  1.00  0.00    -0.454 OA
ATOM     16  C   UNL     1      -2.508   1.643   5.616  1.00  0.00    +0.468 C 
ATOM     17  O   UNL     1      -2.984   0.451   4.959  1.00  0.00    -0.454 OA
ENDROOT
BRANCH   1  18
ATOM     18  O   UNL     1       1.591   0.678   0.832  1.00  0.00    -0.341 OA
BRANCH  18  19
ATOM     19  C   UNL     1       2.527   1.749   1.011  1.00  0.00    +0.282 C 
ATOM     20  C   UNL     1       6.020  -0.305  -1.791  1.00  0.00    +0.247 C 
ATOM     21  O   UNL     1       5.949   1.030  -2.285  1.00  0.00    -0.350 OA
ATOM     22  O   UNL     1       5.849  -0.344  -0.376  1.00  0.00    -0.344 OA
ATOM     23  C   UNL     1       4.679   1.614  -2.011  1.00  0.00    +0.198 C 
ATOM     24  C   UNL     1       4.567   0.167   0.000  1.00  0.00    +0.184 C 
ATOM     25  C   UNL     1       4.383   1.595  -0.513  1.00  0.00    +0.179 C 
ATOM     26  C   UNL     1       4.426   0.139   1.533  1.00  0.00    +0.180 C 
ATOM     27  O   UNL     1       3.065   2.090  -0.271  1.00  0.00    -0.341 OA
ATOM     28  C   UNL     1       3.570   1.304   2.064  1.00  0.00    +0.202 C 
ATOM     29  C   UNL     1       7.400  -0.852  -2.112  1.00  0.00    +0.071 C 
BRANCH  26  30
ATOM     30  O   UNL     1       3.848  -1.113   1.942  1.00  0.00    -0.387 OA
ATOM     31  H   UNL     1       2.925  -1.131   1.629  1.00  0.00    +0.211 HD
ENDBRANCH  26  30
BRANCH  28  32
ATOM     32  O   UNL     1       4.402   2.415   2.423  1.00  0.00    -0.385 OA
ATOM     33  H   UNL     1       4.986   2.119   3.146  1.00  0.00    +0.211 HD
ENDBRANCH  28  32
ENDBRANCH  18  19
ENDBRANCH   1  18
BRANCH   8  34
ATOM     34  C   UNL     1      -2.987  -1.089  -0.279  1.00  0.00    -0.032 A 
ATOM     35  C   UNL     1      -3.641   0.143  -0.457  1.00  0.00    +0.055 A 
ATOM     36  C   UNL     1      -3.579  -2.238  -0.830  1.00  0.00    +0.055 A 
ATOM     37  C   UNL     1      -4.850   0.250  -1.161  1.00  0.00    +0.164 A 
ATOM     38  C   UNL     1      -4.771  -2.152  -1.552  1.00  0.00    +0.164 A 
ATOM     39  C   UNL     1      -5.406  -0.908  -1.706  1.00  0.00    +0.200 A 
BRANCH  37  40
ATOM     40  O   UNL     1      -5.320   1.534  -1.219  1.00  0.00    -0.493 OA
ATOM     41  C   UNL     1      -6.578   1.756  -1.838  1.00  0.00    +0.278 C 
ENDBRANCH  37  40
BRANCH  38  42
ATOM     42  O   UNL     1      -5.418  -3.208  -2.149  1.00  0.00    -0.493 OA
ATOM     43  C   UNL     1      -4.685  -4.425  -2.247  1.00  0.00    +0.278 C 
ENDBRANCH  38  42
BRANCH  39  44
ATOM     44  O   UNL     1      -6.578  -0.886  -2.420  1.00  0.00    -0.502 OA
ATOM     45  H   UNL     1      -6.731  -1.815  -2.683  1.00  0.00    +0.293 HD
ENDBRANCH  39  44
ENDBRANCH   8  34
TORSDOF 8
