REMARK SMILES CO[C@@H]1C[C@H](C)CC[C@@H](C)[C@@H](O)[C@@H](OC)C(=O)[C@H](C)C[C@H](C)/C=C/C=C/C=C/[C@H](C)[C@H](O)C(=O)C(C)(C)[C@@H](O)C(=O)N2CCCC[C@H]2C(=O)O1
REMARK SMILES IDX 33 1 34 2 35 3 36 4 37 5 38 6 40 7 41 8 42 9 47 10 46 11
REMARK SMILES IDX 45 12 43 13 44 14 48 15 49 16 50 17 3 18 2 19 1 20 4 21 5 22
REMARK SMILES IDX 6 23 7 24 8 25 9 26 10 27 39 29 31 31 29 32 30 33 28 34
REMARK SMILES IDX 27 35 26 36 25 37 24 38 23 39 21 40 22 41 20 42 18 43 19 44
REMARK SMILES IDX 16 45 17 46 13 47 11 48 12 50 14 52 15 53 32 54
REMARK H PARENT 39 30 12 51 32 55
REMARK Flexibility Score:  257.900
ROOT
ATOM      1  C   UNL     1      -4.992   3.061  -0.064  1.00  0.00    +0.170 C 
ATOM      2  O   UNL     1      -5.963   3.385  -0.722  1.00  0.00    -0.296 OA
ENDROOT
BRANCH   1   3
ATOM      3  C   UNL     1      -4.953   1.617   0.507  1.00  0.00    +0.061 C 
ATOM      4  C   UNL     1      -6.417   1.118   0.676  1.00  0.00    +0.023 C 
ATOM      5  C   UNL     1      -4.310   1.565   1.920  1.00  0.00    +0.023 C 
BRANCH   3   6
ATOM      6  C   UNL     1      -4.219   0.678  -0.518  1.00  0.00    +0.216 C 
BRANCH   6   7
ATOM      7  C   UNL     1      -3.950  -0.709   0.049  1.00  0.00    +0.253 C 
ATOM      8  O   UNL     1      -2.892  -0.850   0.724  1.00  0.00    -0.272 OA
BRANCH   7   9
ATOM      9  N   UNL     1      -4.850  -1.840  -0.081  1.00  0.00    -0.327 N 
ATOM     10  C   UNL     1      -4.605  -3.022   0.778  1.00  0.00    +0.195 C 
ATOM     11  C   UNL     1      -5.796  -4.006   0.762  1.00  0.00    +0.037 C 
ATOM     12  C   UNL     1      -7.115  -3.234   0.772  1.00  0.00    +0.005 C 
ATOM     13  C   UNL     1      -5.913  -1.938  -1.102  1.00  0.00    +0.120 C 
ATOM     14  C   UNL     1      -7.260  -2.350  -0.478  1.00  0.00    +0.022 C 
BRANCH  10  15
ATOM     15  C   UNL     1      -3.336  -3.710   0.357  1.00  0.00    +0.331 C 
ATOM     16  O   UNL     1      -3.274  -4.305  -0.757  1.00  0.00    -0.250 OA
BRANCH  15  17
ATOM     17  O   UNL     1      -2.219  -3.660   1.198  1.00  0.00    -0.434 OA
BRANCH  17  18
ATOM     18  C   UNL     1      -0.914  -4.101   0.820  1.00  0.00    +0.310 C 
BRANCH  18  19
ATOM     19  O   UNL     1      -0.132  -4.240   1.988  1.00  0.00    -0.346 OA
ATOM     20  C   UNL     1      -0.445  -5.447   2.646  1.00  0.00    +0.199 C 
ENDBRANCH  18  19
BRANCH  18  21
ATOM     21  C   UNL     1      -0.262  -3.046  -0.104  1.00  0.00    +0.079 C 
BRANCH  21  22
ATOM     22  C   UNL     1       1.000  -3.500  -0.887  1.00  0.00    -0.008 C 
ATOM     23  C   UNL     1       0.755  -4.788  -1.685  1.00  0.00    +0.008 C 
BRANCH  22  24
ATOM     24  C   UNL     1       2.278  -3.625  -0.013  1.00  0.00    +0.004 C 
BRANCH  24  25
ATOM     25  C   UNL     1       3.015  -2.279   0.152  1.00  0.00    +0.006 C 
BRANCH  25  26
ATOM     26  C   UNL     1       4.182  -2.344   1.171  1.00  0.00    +0.018 CG0
ATOM     27  C   UNL     1       5.166  -3.486   0.844  1.00  0.00    +0.010 C 
ATOM     28  G   UNL     1       4.882  -0.957   1.354  1.00  0.00    +0.000 G0
ENDBRANCH  25  26
ENDBRANCH  24  25
ENDBRANCH  22  24
ENDBRANCH  21  22
ENDBRANCH  18  21
ENDBRANCH  17  18
ENDBRANCH  15  17
ENDBRANCH  10  15
ENDBRANCH   7   9
ENDBRANCH   6   7
BRANCH   6  29
ATOM     29  O   UNL     1      -2.994   1.244  -0.906  1.00  0.00    -0.382 OA
ATOM     30  H   UNL     1      -2.676   0.737  -1.699  1.00  0.00    +0.211 HD
ENDBRANCH   6  29
ENDBRANCH   3   6
ENDBRANCH   1   3
BRANCH   1  31
ATOM     31  C   UNL     1      -3.868   4.108   0.032  1.00  0.00    +0.188 C 
BRANCH  31  32
ATOM     32  C   UNL     1      -3.294   4.458  -1.391  1.00  0.00    +0.045 C 
ATOM     33  C   UNL     1      -3.898   5.756  -1.948  1.00  0.00    +0.015 C 
BRANCH  32  34
ATOM     34  C   UNL     1      -1.783   4.497  -1.452  1.00  0.00    -0.021 C 
ATOM     35  C   UNL     1      -1.047   5.368  -0.739  1.00  0.00    -0.004 C 
BRANCH  35  36
ATOM     36  C   UNL     1       0.428   5.309  -0.641  1.00  0.00    -0.000 C 
ATOM     37  C   UNL     1       1.148   4.216  -0.927  1.00  0.00    -0.000 C 
BRANCH  37  38
ATOM     38  C   UNL     1       2.609   4.188  -0.734  1.00  0.00    -0.004 C 
ATOM     39  C   UNL     1       3.345   3.205  -1.266  1.00  0.00    -0.024 C 
BRANCH  39  40
ATOM     40  C   UNL     1       4.839   3.095  -1.069  1.00  0.00    +0.009 C 
ATOM     41  C   UNL     1       5.553   4.427  -1.392  1.00  0.00    +0.012 C 
BRANCH  40  42
ATOM     42  C   UNL     1       5.132   2.588   0.365  1.00  0.00    +0.018 C 
BRANCH  42  43
ATOM     43  C   UNL     1       6.591   2.079   0.555  1.00  0.00    +0.056 C 
ATOM     44  C   UNL     1       7.178   2.688   1.841  1.00  0.00    +0.016 C 
BRANCH  43  45
ATOM     45  C   UNL     1       6.808   0.558   0.562  1.00  0.00    +0.167 C 
ATOM     46  O   UNL     1       7.914   0.159   0.897  1.00  0.00    -0.296 OA
BRANCH  45  47
ATOM     47  C   UNL     1       5.792  -0.514   0.163  1.00  0.00    +0.213 C 
BRANCH  47  48
ATOM     48  C   UNL     1       4.882  -0.957   1.354  1.00  0.00    +0.153 CG0
ATOM     49  G   UNL     1       4.182  -2.344   1.171  1.00  0.00    +0.000 G0
BRANCH  48  50
ATOM     50  O   UNL     1       5.581  -0.930   2.580  1.00  0.00    -0.390 OA
ATOM     51  H   UNL     1       6.414  -1.460   2.471  1.00  0.00    +0.211 HD
ENDBRANCH  48  50
ENDBRANCH  47  48
BRANCH  47  52
ATOM     52  O   UNL     1       4.990  -0.065  -0.918  1.00  0.00    -0.371 OA
ATOM     53  C   UNL     1       5.574  -0.414  -2.160  1.00  0.00    +0.196 C 
ENDBRANCH  47  52
ENDBRANCH  45  47
ENDBRANCH  43  45
ENDBRANCH  42  43
ENDBRANCH  40  42
ENDBRANCH  39  40
ENDBRANCH  37  38
ENDBRANCH  35  36
ENDBRANCH  32  34
ENDBRANCH  31  32
BRANCH  31  54
ATOM     54  O   UNL     1      -2.857   3.774   0.954  1.00  0.00    -0.385 OA
ATOM     55  H   UNL     1      -2.334   3.027   0.581  1.00  0.00    +0.211 HD
ENDBRANCH  31  54
ENDBRANCH   1  31
TORSDOF 5
