REMARK SMILES CO[C@H]1C[C@@H]2CC[C@@H](C)[C@@](O)(O2)C(=O)C(=O)N2CCCC[C@H]2C(=O)O[C@H]([C@H](C)C[C@@H]2CC[C@@H](OCCO)[C@H](OC)C2)CC(=O)[C@H](C)/C=C(\C)[C@@H](O)[C@@H](OC)C(=O)[C@H](C)C[C@H](C)/C=C/C=C/C=C/1C
REMARK SMILES IDX 22 1 21 2 20 3 19 4 18 5 17 6 15 7 16 8 13 9 14 10 10 11
REMARK SMILES IDX 8 12 7 13 6 14 12 15 5 16 9 17 11 18 4 20 3 21 67 22 66 23
REMARK SMILES IDX 68 24 65 25 64 26 63 27 62 28 60 29 61 30 59 31 57 32 58 33
REMARK SMILES IDX 2 35 1 36 23 37 24 38 25 39 26 40 42 41 43 42 44 43 45 44
REMARK SMILES IDX 46 45 47 46 48 47 49 48 50 49 52 50 55 51 56 52 53 54 54 55
REMARK SMILES IDX 51 56 27 58 28 59 29 60 30 61 31 62 41 63 32 64 38 65 33 66
REMARK SMILES IDX 39 67 40 68 34 69 35 70 36 71 37 72
REMARK H PARENT 11 19 51 57 37 73
REMARK Flexibility Score:  319.900
ROOT
ATOM      1  C   UNL     1       1.602  -3.413   1.254  1.00  0.00    +0.195 C 
ATOM      2  C   UNL     1       3.069  -3.728   0.908  1.00  0.00    +0.037 C 
ATOM      3  C   UNL     1       3.243  -4.120  -0.563  1.00  0.00    +0.005 C 
ATOM      4  C   UNL     1       2.304  -5.263  -0.948  1.00  0.00    +0.022 C 
ATOM      5  C   UNL     1       0.861  -4.925  -0.587  1.00  0.00    +0.121 C 
ATOM      6  N   UNL     1       0.770  -4.555   0.826  1.00  0.00    -0.322 N 
ENDROOT
BRANCH   6   7
ATOM      7  C   UNL     1       0.102  -5.306   1.790  1.00  0.00    +0.296 C 
ATOM      8  O   UNL     1       0.025  -5.001   2.975  1.00  0.00    -0.265 OA
BRANCH   7   9
ATOM      9  C   UNL     1      -0.487  -6.639   1.356  1.00  0.00    +0.279 C 
ATOM     10  O   UNL     1       0.270  -7.558   1.043  1.00  0.00    -0.282 OA
BRANCH   9  11
ATOM     11  C   UNL     1      -2.018  -6.736   1.265  1.00  0.00    +0.239 C 
ATOM     12  C   UNL     1      -2.681  -6.729   2.663  1.00  0.00    +0.054 C 
ATOM     13  C   UNL     1      -4.121  -6.186   2.608  1.00  0.00    +0.012 C 
ATOM     14  C   UNL     1      -4.728  -6.325   1.219  1.00  0.00    +0.033 C 
ATOM     15  O   UNL     1      -2.462  -5.621   0.505  1.00  0.00    -0.340 OA
ATOM     16  C   UNL     1      -3.857  -5.642   0.150  1.00  0.00    +0.125 C 
ATOM     17  C   UNL     1      -2.641  -8.106   3.334  1.00  0.00    +0.014 C 
BRANCH  11  18
ATOM     18  O   UNL     1      -2.344  -7.944   0.567  1.00  0.00    -0.359 OA
ATOM     19  H   UNL     1      -1.516  -8.252   0.149  1.00  0.00    +0.214 HD
ENDBRANCH  11  18
BRANCH  16  20
ATOM     20  C   UNL     1      -4.238  -4.169  -0.078  1.00  0.00    +0.068 C 
BRANCH  20  21
ATOM     21  C   UNL     1      -5.606  -3.934  -0.749  1.00  0.00    +0.146 C 
BRANCH  21  22
ATOM     22  C   UNL     1      -6.013  -2.462  -0.923  1.00  0.00    -0.045 C 
ATOM     23  C   UNL     1      -5.261  -1.433  -0.478  1.00  0.00    +0.002 C 
ATOM     24  C   UNL     1      -7.356  -2.281  -1.591  1.00  0.00    +0.042 C 
BRANCH  23  25
ATOM     25  C   UNL     1      -5.538  -0.014  -0.576  1.00  0.00    +0.000 C 
ATOM     26  C   UNL     1      -4.788   0.886   0.078  1.00  0.00    -0.000 C 
BRANCH  26  27
ATOM     27  C   UNL     1      -4.973   2.318   0.044  1.00  0.00    -0.004 C 
ATOM     28  C   UNL     1      -5.070   3.040  -1.083  1.00  0.00    -0.024 C 
BRANCH  28  29
ATOM     29  C   UNL     1      -5.127   4.552  -1.199  1.00  0.00    +0.009 C 
ATOM     30  C   UNL     1      -6.493   4.962  -1.750  1.00  0.00    +0.012 C 
BRANCH  29  31
ATOM     31  C   UNL     1      -4.772   5.308   0.104  1.00  0.00    +0.018 C 
BRANCH  31  32
ATOM     32  C   UNL     1      -4.491   6.811  -0.096  1.00  0.00    +0.056 CG0
ATOM     33  C   UNL     1      -5.673   7.676   0.343  1.00  0.00    +0.016 C 
ATOM     34  G   UNL     1      -3.264   7.210   0.729  1.00  0.00    +0.000 G0
ENDBRANCH  31  32
ENDBRANCH  29  31
ENDBRANCH  28  29
ENDBRANCH  26  27
ENDBRANCH  23  25
ENDBRANCH  21  22
BRANCH  21  35
ATOM     35  O   UNL     1      -5.557  -4.530  -2.053  1.00  0.00    -0.377 OA
ATOM     36  C   UNL     1      -6.511  -5.568  -2.233  1.00  0.00    +0.195 C 
ENDBRANCH  21  35
ENDBRANCH  20  21
ENDBRANCH  16  20
ENDBRANCH   9  11
ENDBRANCH   7   9
ENDBRANCH   6   7
BRANCH   1  37
ATOM     37  C   UNL     1       1.115  -2.068   0.671  1.00  0.00    +0.329 C 
ATOM     38  O   UNL     1       0.015  -1.871   0.170  1.00  0.00    -0.250 OA
BRANCH  37  39
ATOM     39  O   UNL     1       2.067  -1.102   0.829  1.00  0.00    -0.460 OA
BRANCH  39  40
ATOM     40  C   UNL     1       1.825   0.183   0.187  1.00  0.00    +0.186 C 
BRANCH  40  41
ATOM     41  C   UNL     1       0.947   1.028   1.123  1.00  0.00    +0.121 C 
BRANCH  41  42
ATOM     42  C   UNL     1       0.149   2.097   0.390  1.00  0.00    +0.143 C 
ATOM     43  O   UNL     1      -0.017   2.050  -0.831  1.00  0.00    -0.299 OA
BRANCH  42  44
ATOM     44  C   UNL     1      -0.426   3.233   1.258  1.00  0.00    +0.076 C 
ATOM     45  C   UNL     1      -1.528   2.703   2.168  1.00  0.00    +0.020 C 
BRANCH  44  46
ATOM     46  C   UNL     1      -0.964   4.338   0.374  1.00  0.00    -0.014 C 
ATOM     47  C   UNL     1      -0.568   5.628   0.284  1.00  0.00    -0.045 C 
ATOM     48  C   UNL     1       0.563   6.213   1.093  1.00  0.00    +0.042 C 
BRANCH  47  49
ATOM     49  C   UNL     1      -1.216   6.626  -0.681  1.00  0.00    +0.176 C 
BRANCH  49  50
ATOM     50  C   UNL     1      -2.029   7.757   0.001  1.00  0.00    +0.217 C 
BRANCH  50  51
ATOM     51  C   UNL     1      -3.264   7.210   0.729  1.00  0.00    +0.167 CG0
ATOM     52  O   UNL     1      -3.265   7.109   1.963  1.00  0.00    -0.296 OA
ATOM     53  G   UNL     1      -4.491   6.811  -0.096  1.00  0.00    +0.000 G0
ENDBRANCH  50  51
BRANCH  50  54
ATOM     54  O   UNL     1      -2.367   8.762  -0.964  1.00  0.00    -0.371 OA
ATOM     55  C   UNL     1      -2.597  10.035  -0.372  1.00  0.00    +0.196 C 
ENDBRANCH  50  54
ENDBRANCH  49  50
BRANCH  49  56
ATOM     56  O   UNL     1      -2.005   5.946  -1.660  1.00  0.00    -0.386 OA
ATOM     57  H   UNL     1      -1.412   5.314  -2.106  1.00  0.00    +0.211 HD
ENDBRANCH  49  56
ENDBRANCH  47  49
ENDBRANCH  44  46
ENDBRANCH  42  44
ENDBRANCH  41  42
ENDBRANCH  40  41
BRANCH  40  58
ATOM     58  C   UNL     1       3.235   0.800  -0.083  1.00  0.00    +0.028 C 
ATOM     59  C   UNL     1       3.172   2.231  -0.623  1.00  0.00    +0.011 C 
BRANCH  58  60
ATOM     60  C   UNL     1       4.030  -0.125  -1.044  1.00  0.00    +0.010 C 
BRANCH  60  61
ATOM     61  C   UNL     1       5.473   0.302  -1.394  1.00  0.00    -0.008 C 
ATOM     62  C   UNL     1       6.087  -0.728  -2.355  1.00  0.00    +0.006 C 
ATOM     63  C   UNL     1       6.357   0.454  -0.149  1.00  0.00    +0.038 C 
ATOM     64  C   UNL     1       7.520  -0.366  -2.721  1.00  0.00    +0.035 C 
ATOM     65  C   UNL     1       7.815   0.794  -0.491  1.00  0.00    +0.147 C 
ATOM     66  C   UNL     1       8.411  -0.225  -1.487  1.00  0.00    +0.147 C 
BRANCH  65  67
ATOM     67  O   UNL     1       8.585   0.759   0.723  1.00  0.00    -0.379 OA
ATOM     68  C   UNL     1       8.597   2.002   1.413  1.00  0.00    +0.195 C 
ENDBRANCH  65  67
BRANCH  66  69
ATOM     69  O   UNL     1       9.687   0.238  -1.965  1.00  0.00    -0.373 OA
BRANCH  69  70
ATOM     70  C   UNL     1      10.801  -0.304  -1.258  1.00  0.00    +0.188 C 
BRANCH  70  71
ATOM     71  C   UNL     1      11.209  -1.661  -1.829  1.00  0.00    +0.184 C 
BRANCH  71  72
ATOM     72  O   UNL     1      12.378  -2.159  -1.189  1.00  0.00    -0.394 OA
ATOM     73  H   UNL     1      13.104  -1.545  -1.394  1.00  0.00    +0.210 HD
ENDBRANCH  71  72
ENDBRANCH  70  71
ENDBRANCH  69  70
ENDBRANCH  66  69
ENDBRANCH  60  61
ENDBRANCH  58  60
ENDBRANCH  40  58
ENDBRANCH  39  40
ENDBRANCH  37  39
ENDBRANCH   1  37
TORSDOF 12
