REMARK SMILES CC[C@@]1(O)C(=O)OCc2c1cc1n(c2=O)Cc2c-1nc1cc(F)c(C)c3c1c2[C@@H](N)CC3
REMARK SMILES IDX 3 1 10 2 9 3 8 4 7 5 5 6 6 7 14 8 15 9 13 10 16 11 17 12
REMARK SMILES IDX 28 13 29 14 31 15 32 16 26 17 27 18 20 19 21 20 22 21 24 22
REMARK SMILES IDX 25 23 23 24 19 25 18 26 12 27 11 28 2 29 1 30 4 31 30 33
REMARK H PARENT 4 32 30 34 30 35
ROOT
ATOM      1  C   UNL     1       4.889   0.518  -0.099  1.00  0.00    +0.187 C 
ATOM      2  C   UNL     1       3.563  -0.233  -0.061  1.00  0.00    +0.009 C 
ATOM      3  C   UNL     1       3.611  -1.581   0.014  1.00  0.00    +0.062 C 
ATOM      4  C   UNL     1       4.910  -2.301   0.123  1.00  0.00    +0.275 C 
ATOM      5  O   UNL     1       5.899  -1.541   0.852  1.00  0.00    -0.458 OA
ATOM      6  C   UNL     1       5.820  -0.187   0.936  1.00  0.00    +0.343 C 
ATOM      7  O   UNL     1       6.505   0.415   1.758  1.00  0.00    -0.248 OA
ATOM      8  C   UNL     1       2.367  -2.411  -0.017  1.00  0.00    +0.258 C 
ATOM      9  O   UNL     1       2.412  -3.635   0.024  1.00  0.00    -0.269 OA
ATOM     10  N   UNL     1       1.205  -1.688  -0.099  1.00  0.00    -0.302 N 
ATOM     11  C   UNL     1      -0.140  -2.273  -0.136  1.00  0.00    +0.164 C 
ATOM     12  C   UNL     1      -1.016  -1.062  -0.262  1.00  0.00    +0.005 A 
ATOM     13  C   UNL     1      -2.393  -0.944  -0.351  1.00  0.00    -0.014 A 
ATOM     14  C   UNL     1      -3.277  -2.165  -0.342  1.00  0.00    +0.082 C 
ATOM     15  C   UNL     1      -4.630  -1.859  -0.991  1.00  0.00    +0.028 C 
ATOM     16  C   UNL     1      -5.280  -0.601  -0.423  1.00  0.00    +0.038 C 
ATOM     17  C   UNL     1      -4.339   0.585  -0.458  1.00  0.00    -0.032 A 
ATOM     18  C   UNL     1      -2.937   0.363  -0.412  1.00  0.00    +0.009 A 
ATOM     19  C   UNL     1      -2.035   1.470  -0.413  1.00  0.00    +0.075 A 
ATOM     20  C   UNL     1      -2.555   2.747  -0.468  1.00  0.00    +0.068 A 
ATOM     21  C   UNL     1      -3.928   2.960  -0.498  1.00  0.00    +0.128 A 
ATOM     22  C   UNL     1      -4.839   1.903  -0.474  1.00  0.00    -0.011 A 
ATOM     23  C   UNL     1      -6.312   2.203  -0.498  1.00  0.00    +0.048 C 
ATOM     24  F   UNL     1      -4.373   4.225  -0.543  1.00  0.00    -0.207 F 
ATOM     25  N   UNL     1      -0.698   1.344  -0.356  1.00  0.00    -0.246 NA
ATOM     26  C   UNL     1      -0.242   0.089  -0.274  1.00  0.00    +0.093 A 
ATOM     27  C   UNL     1       1.157  -0.311  -0.177  1.00  0.00    +0.071 C 
ATOM     28  C   UNL     1       2.269   0.430  -0.167  1.00  0.00    +0.036 C 
ENDROOT
BRANCH   1  29
ATOM     29  C   UNL     1       4.791   2.037   0.193  1.00  0.00    +0.049 C 
ATOM     30  C   UNL     1       6.067   2.841  -0.059  1.00  0.00    +0.008 C 
ENDBRANCH   1  29
BRANCH   1  31
ATOM     31  O   UNL     1       5.396   0.337  -1.429  1.00  0.00    -0.374 OA
ATOM     32  H   UNL     1       6.318   0.647  -1.434  1.00  0.00    +0.212 HD
ENDBRANCH   1  31
BRANCH  14  33
ATOM     33  N   UNL     1      -3.410  -2.673   1.021  1.00  0.00    -0.324 NA
ATOM     34  H   UNL     1      -3.810  -1.952   1.622  1.00  0.00    +0.119 HD
ATOM     35  H   UNL     1      -4.067  -3.452   1.037  1.00  0.00    +0.119 HD
ENDBRANCH  14  33
TORSDOF 3
