REMARK SMILES CCC1(O)C(=O)OCc2c1cc1n(c2=O)Cc2cc3c(F)c(N)c(C)c(F)c3nc2-1
REMARK SMILES IDX 3 1 5 2 6 3 7 4 8 5 9 6 10 7 11 8 12 9 30 10 29 11 28 12
REMARK SMILES IDX 26 13 27 14 24 15 25 16 22 17 20 18 21 19 19 20 18 21 17 22
REMARK SMILES IDX 16 23 13 24 14 25 15 26 2 27 1 28 4 29 23 31
REMARK H PARENT 4 30 23 32 23 33
ROOT
ATOM      1  C   UNL     1       4.061   0.665  -0.411  1.00  0.00    +0.187 C 
ATOM      2  C   UNL     1       5.211   0.129  -1.245  1.00  0.00    +0.343 C 
ATOM      3  O   UNL     1       6.059   0.918  -1.741  1.00  0.00    -0.248 OA
ATOM      4  O   UNL     1       5.337  -1.241  -1.481  1.00  0.00    -0.458 OA
ATOM      5  C   UNL     1       4.507  -2.202  -0.835  1.00  0.00    +0.275 C 
ATOM      6  C   UNL     1       3.096  -1.688  -0.701  1.00  0.00    +0.062 A 
ATOM      7  C   UNL     1       2.879  -0.299  -0.489  1.00  0.00    +0.009 A 
ATOM      8  C   UNL     1       1.568   0.167  -0.267  1.00  0.00    +0.036 A 
ATOM      9  C   UNL     1       0.526  -0.753  -0.292  1.00  0.00    +0.071 A 
ATOM     10  C   UNL     1      -0.883  -0.525  -0.093  1.00  0.00    +0.093 A 
ATOM     11  N   UNL     1      -1.542   0.633   0.149  1.00  0.00    -0.243 NA
ATOM     12  C   UNL     1      -2.900   0.610   0.308  1.00  0.00    +0.110 A 
ATOM     13  C   UNL     1      -3.590   1.799   0.557  1.00  0.00    +0.154 A 
ATOM     14  F   UNL     1      -2.890   2.961   0.636  1.00  0.00    -0.204 F 
ATOM     15  C   UNL     1      -4.989   1.793   0.725  1.00  0.00    +0.013 A 
ATOM     16  C   UNL     1      -5.715   3.087   0.993  1.00  0.00    +0.050 C 
ATOM     17  C   UNL     1      -5.700   0.569   0.639  1.00  0.00    +0.074 A 
ATOM     18  C   UNL     1      -5.004  -0.628   0.389  1.00  0.00    +0.155 A 
ATOM     19  F   UNL     1      -5.688  -1.800   0.308  1.00  0.00    -0.204 F 
ATOM     20  C   UNL     1      -3.612  -0.621   0.222  1.00  0.00    +0.042 A 
ATOM     21  C   UNL     1      -2.900  -1.815  -0.029  1.00  0.00    +0.021 A 
ATOM     22  C   UNL     1      -1.520  -1.735  -0.185  1.00  0.00    +0.001 A 
ATOM     23  C   UNL     1      -0.517  -2.819  -0.452  1.00  0.00    +0.164 C 
ATOM     24  N   UNL     1       0.746  -2.069  -0.499  1.00  0.00    -0.302 N 
ATOM     25  C   UNL     1       1.995  -2.572  -0.691  1.00  0.00    +0.258 A 
ATOM     26  O   UNL     1       2.159  -3.812  -0.849  1.00  0.00    -0.269 OA
ENDROOT
BRANCH   1  27
ATOM     27  C   UNL     1       4.486   0.795   1.071  1.00  0.00    +0.049 C 
ATOM     28  C   UNL     1       5.618   1.800   1.303  1.00  0.00    +0.008 C 
ENDBRANCH   1  27
BRANCH   1  29
ATOM     29  O   UNL     1       3.683   1.935  -0.894  1.00  0.00    -0.374 OA
ATOM     30  H   UNL     1       3.394   1.828  -1.839  1.00  0.00    +0.212 HD
ENDBRANCH   1  29
BRANCH  17  31
ATOM     31  N   UNL     1      -7.126   0.524   0.805  1.00  0.00    -0.396 N 
ATOM     32  H   UNL     1      -7.646  -0.379   0.741  1.00  0.00    +0.156 HD
ATOM     33  H   UNL     1      -7.694   1.379   0.992  1.00  0.00    +0.156 HD
ENDBRANCH  17  31
TORSDOF 3
