REMARK SMILES CC[C@@]1(O)C(=O)OCc2c1cc1n(c2=O)Cc2c-1cc(F)c1c2CCCN1
REMARK SMILES IDX 3 1 5 2 6 3 7 4 8 5 9 6 10 7 11 8 12 9 13 10 14 11 15 12
REMARK SMILES IDX 16 13 17 14 18 15 19 16 20 17 21 18 22 19 23 20 24 21 25 22
REMARK SMILES IDX 26 23 27 24 2 26 1 27 4 28
REMARK H PARENT 27 25 4 29
ROOT
ATOM      1  C   UNL     1       4.124  -0.682   0.164  1.00  0.00    +0.187 C 
ATOM      2  C   UNL     1       5.052  -0.440   1.335  1.00  0.00    +0.343 C 
ATOM      3  O   UNL     1       6.045  -1.192   1.524  1.00  0.00    -0.248 OA
ATOM      4  O   UNL     1       4.840   0.637   2.199  1.00  0.00    -0.458 OA
ATOM      5  C   UNL     1       3.851   1.629   1.940  1.00  0.00    +0.275 C 
ATOM      6  C   UNL     1       2.610   0.997   1.364  1.00  0.00    +0.062 A 
ATOM      7  C   UNL     1       2.737  -0.133   0.512  1.00  0.00    +0.009 A 
ATOM      8  C   UNL     1       1.574  -0.699  -0.053  1.00  0.00    +0.035 A 
ATOM      9  C   UNL     1       0.341  -0.125   0.245  1.00  0.00    +0.052 A 
ATOM     10  N   UNL     1       0.243   0.957   1.044  1.00  0.00    -0.303 N 
ATOM     11  C   UNL     1       1.332   1.545   1.608  1.00  0.00    +0.258 A 
ATOM     12  O   UNL     1       1.194   2.566   2.335  1.00  0.00    -0.269 OA
ATOM     13  C   UNL     1      -1.156   1.375   1.177  1.00  0.00    +0.162 C 
ATOM     14  C   UNL     1      -1.876   0.368   0.324  1.00  0.00    -0.013 A 
ATOM     15  C   UNL     1      -0.970  -0.515  -0.224  1.00  0.00    +0.007 A 
ATOM     16  C   UNL     1      -1.364  -1.545  -1.074  1.00  0.00    +0.052 A 
ATOM     17  C   UNL     1      -2.728  -1.671  -1.377  1.00  0.00    +0.147 A 
ATOM     18  F   UNL     1      -3.131  -2.664  -2.210  1.00  0.00    -0.205 F 
ATOM     19  C   UNL     1      -3.671  -0.767  -0.831  1.00  0.00    +0.074 A 
ATOM     20  C   UNL     1      -3.245   0.259   0.050  1.00  0.00    -0.016 A 
ATOM     21  C   UNL     1      -4.234   1.254   0.608  1.00  0.00    +0.040 C 
ATOM     22  C   UNL     1      -5.658   0.684   0.635  1.00  0.00    +0.026 C 
ATOM     23  C   UNL     1      -6.035   0.115  -0.735  1.00  0.00    +0.113 C 
ATOM     24  N   UNL     1      -5.067  -0.900  -1.144  1.00  0.00    -0.382 N 
ATOM     25  H   UNL     1      -5.404  -1.709  -1.714  1.00  0.00    +0.160 HD
ENDROOT
BRANCH   1  26
ATOM     26  C   UNL     1       4.737   0.042  -1.074  1.00  0.00    +0.049 C 
ATOM     27  C   UNL     1       3.815   0.142  -2.296  1.00  0.00    +0.008 C 
ENDBRANCH   1  26
BRANCH   1  28
ATOM     28  O   UNL     1       4.064  -2.081  -0.026  1.00  0.00    -0.374 OA
ATOM     29  H   UNL     1       3.784  -2.277  -0.955  1.00  0.00    +0.212 HD
ENDBRANCH   1  28
TORSDOF 2
