REMARK SMILES O=c1[nH]cc(F)c(=O)[nH]1
REMARK SMILES IDX 1 1 2 2 3 3 4 4 5 5 6 6 7 7 8 8 9 9
REMARK H PARENT 3 10 9 11
ROOT
ATOM      1  O   UNL     1      -2.585  -0.545   0.007  1.00  0.00    -0.248 OA
ATOM      2  C   UNL     1      -1.353  -0.279   0.003  1.00  0.00    +0.325 A 
ATOM      3  N   UNL     1      -0.936   1.015  -0.059  1.00  0.00    -0.311 N 
ATOM      4  C   UNL     1       0.388   1.320  -0.064  1.00  0.00    +0.132 A 
ATOM      5  C   UNL     1       1.338   0.302  -0.005  1.00  0.00    +0.204 A 
ATOM      6  F   UNL     1       2.663   0.596  -0.009  1.00  0.00    -0.199 F 
ATOM      7  C   UNL     1       0.895  -1.020   0.059  1.00  0.00    +0.289 A 
ATOM      8  O   UNL     1       1.728  -1.964   0.114  1.00  0.00    -0.266 OA
ATOM      9  N   UNL     1      -0.440  -1.288   0.062  1.00  0.00    -0.272 N 
ATOM     10  H   UNL     1      -1.638   1.788  -0.104  1.00  0.00    +0.171 HD
ATOM     11  H   UNL     1      -0.768  -2.280   0.110  1.00  0.00    +0.175 HD
ENDROOT
TORSDOF 0
