REMARK SMILES Nc1ccn([C@@H]2O[C@H](CO)[C@@H](O)C2(F)F)c(=O)n1
REMARK SMILES IDX 6 1 7 2 8 3 11 4 13 5 14 6 15 7 5 8 2 9 3 10 18 11 4 12
REMARK SMILES IDX 16 13 17 14 1 15 9 18 10 19 12 21
REMARK H PARENT 1 16 1 17 10 20 12 22
ROOT
ATOM      1  C   UNL     1      -0.188  -0.110   1.056  1.00  0.00    +0.297 C 
ATOM      2  O   UNL     1      -0.882  -1.273   0.652  1.00  0.00    -0.343 OA
ATOM      3  C   UNL     1      -2.250  -0.945   0.687  1.00  0.00    +0.181 C 
ATOM      4  C   UNL     1      -2.378   0.524   0.308  1.00  0.00    +0.220 C 
ATOM      5  C   UNL     1      -1.097   1.116   0.855  1.00  0.00    +0.320 C 
ATOM      6  F   UNL     1      -1.317   1.745   2.072  1.00  0.00    -0.198 F 
ATOM      7  F   UNL     1      -0.567   2.035  -0.038  1.00  0.00    -0.198 F 
ENDROOT
BRANCH   1   8
ATOM      8  N   UNL     1       1.087   0.018   0.317  1.00  0.00    -0.266 N 
ATOM      9  C   UNL     1       3.481   0.317  -1.028  1.00  0.00    +0.130 A 
ATOM     10  C   UNL     1       3.436   0.515   0.350  1.00  0.00    +0.065 A 
ATOM     11  N   UNL     1       2.344  -0.008  -1.693  1.00  0.00    -0.176 NA
ATOM     12  C   UNL     1       2.217   0.365   1.007  1.00  0.00    +0.097 A 
ATOM     13  C   UNL     1       1.158  -0.154  -1.045  1.00  0.00    +0.351 A 
ATOM     14  O   UNL     1       0.131  -0.438  -1.717  1.00  0.00    -0.246 OA
BRANCH   9  15
ATOM     15  N   UNL     1       4.708   0.458  -1.743  1.00  0.00    -0.383 N 
ATOM     16  H   UNL     1       4.733   0.318  -2.778  1.00  0.00    +0.158 HD
ATOM     17  H   UNL     1       5.596   0.690  -1.246  1.00  0.00    +0.158 HD
ENDBRANCH   9  15
ENDBRANCH   1   8
BRANCH   3  18
ATOM     18  C   UNL     1      -3.055  -1.872  -0.236  1.00  0.00    +0.191 C 
BRANCH  18  19
ATOM     19  O   UNL     1      -2.566  -1.838  -1.550  1.00  0.00    -0.394 OA
ATOM     20  H   UNL     1      -1.794  -2.460  -1.585  1.00  0.00    +0.210 HD
ENDBRANCH  18  19
ENDBRANCH   3  18
BRANCH   4  21
ATOM     21  O   UNL     1      -3.519   1.092   0.897  1.00  0.00    -0.384 OA
ATOM     22  H   UNL     1      -3.632   1.987   0.482  1.00  0.00    +0.211 HD
ENDBRANCH   4  21
TORSDOF 5
