REMARK SMILES CC(=O)[C@@]1(O)Cc2c(O)c3c(c(O)c2C[C@@H]1O[C@H]1C[C@H](N)[C@H](O)[C@H](C)O1)C(=O)c1ccccc1C3=O
REMARK SMILES IDX 17 1 16 2 4 3 6 4 7 5 15 6 8 7 14 8 10 9 12 10 35 11 11 12
REMARK SMILES IDX 36 13 34 14 27 15 33 16 29 17 28 18 32 19 30 20 31 21 2 22
REMARK SMILES IDX 3 23 1 24 5 25 9 27 13 29 18 31 19 32 26 33 20 34 24 35
REMARK SMILES IDX 22 36 25 37 21 38 23 41
REMARK H PARENT 5 26 9 28 13 30 21 39 21 40 23 42
ROOT
ATOM      1  O   UNL     1      -2.525   1.068   0.668  1.00  0.00    -0.346 OA
ENDROOT
BRANCH   1   2
ATOM      2  C   UNL     1      -1.126   0.886   0.846  1.00  0.00    +0.165 C 
ATOM      3  C   UNL     1      -0.472   2.249   1.186  1.00  0.00    +0.153 C 
ATOM      4  C   UNL     1       1.026   2.020   1.473  1.00  0.00    +0.086 C 
ATOM      5  C   UNL     1       1.735   1.171   0.429  1.00  0.00    +0.005 A 
ATOM      6  C   UNL     1      -0.518   0.326  -0.448  1.00  0.00    +0.075 C 
ATOM      7  C   UNL     1       3.149   1.105   0.425  1.00  0.00    +0.131 A 
ATOM      8  C   UNL     1       0.999   0.356  -0.464  1.00  0.00    +0.004 A 
ATOM      9  C   UNL     1       3.826   0.346  -0.559  1.00  0.00    +0.080 A 
ATOM     10  C   UNL     1       1.671  -0.421  -1.426  1.00  0.00    +0.131 A 
ATOM     11  C   UNL     1       5.319   0.268  -0.579  1.00  0.00    +0.198 C 
ATOM     12  C   UNL     1       3.083  -0.371  -1.527  1.00  0.00    +0.080 A 
ATOM     13  O   UNL     1       6.012   0.971   0.207  1.00  0.00    -0.288 OA
ATOM     14  C   UNL     1       6.006  -0.646  -1.519  1.00  0.00    +0.034 A 
ATOM     15  C   UNL     1       3.816  -1.030  -2.645  1.00  0.00    +0.198 C 
ATOM     16  C   UNL     1       7.392  -0.871  -1.426  1.00  0.00    +0.013 A 
ATOM     17  C   UNL     1       5.267  -1.287  -2.529  1.00  0.00    +0.034 A 
ATOM     18  O   UNL     1       3.232  -1.296  -3.731  1.00  0.00    -0.288 OA
ATOM     19  C   UNL     1       8.031  -1.728  -2.326  1.00  0.00    +0.001 A 
ATOM     20  C   UNL     1       5.921  -2.144  -3.433  1.00  0.00    +0.013 A 
ATOM     21  C   UNL     1       7.297  -2.364  -3.328  1.00  0.00    +0.001 A 
BRANCH   3  22
ATOM     22  C   UNL     1      -1.124   2.853   2.430  1.00  0.00    +0.164 C 
ATOM     23  O   UNL     1      -1.173   2.198   3.463  1.00  0.00    -0.297 OA
ATOM     24  C   UNL     1      -1.730   4.229   2.418  1.00  0.00    +0.091 C 
ENDBRANCH   3  22
BRANCH   3  25
ATOM     25  O   UNL     1      -0.573   3.139   0.091  1.00  0.00    -0.379 OA
ATOM     26  H   UNL     1      -1.529   3.217  -0.163  1.00  0.00    +0.212 HD
ENDBRANCH   3  25
BRANCH   7  27
ATOM     27  O   UNL     1       3.899   1.777   1.398  1.00  0.00    -0.507 OA
ATOM     28  H   UNL     1       3.501   2.270   2.186  1.00  0.00    +0.293 HD
ENDBRANCH   7  27
BRANCH  10  29
ATOM     29  O   UNL     1       0.902  -1.259  -2.243  1.00  0.00    -0.507 OA
ATOM     30  H   UNL     1       1.272  -2.060  -2.733  1.00  0.00    +0.293 HD
ENDBRANCH  10  29
ENDBRANCH   1   2
BRANCH   1  31
ATOM     31  C   UNL     1      -3.283   0.057   1.312  1.00  0.00    +0.252 C 
ATOM     32  C   UNL     1      -4.763   0.517   1.406  1.00  0.00    +0.083 C 
ATOM     33  O   UNL     1      -3.117  -1.193   0.642  1.00  0.00    -0.347 OA
ATOM     34  C   UNL     1      -5.732  -0.667   1.267  1.00  0.00    +0.087 C 
ATOM     35  C   UNL     1      -3.956  -1.277  -0.495  1.00  0.00    +0.148 C 
ATOM     36  C   UNL     1      -5.435  -1.459  -0.044  1.00  0.00    +0.160 C 
ATOM     37  C   UNL     1      -3.463  -2.397  -1.417  1.00  0.00    +0.041 C 
BRANCH  34  38
ATOM     38  N   UNL     1      -5.670  -1.497   2.476  1.00  0.00    -0.325 NA
ATOM     39  H   UNL     1      -4.779  -2.047   2.497  1.00  0.00    +0.119 HD
ATOM     40  H   UNL     1      -6.468  -2.173   2.465  1.00  0.00    +0.119 HD
ENDBRANCH  34  38
BRANCH  36  41
ATOM     41  O   UNL     1      -5.819  -2.810   0.064  1.00  0.00    -0.389 OA
ATOM     42  H   UNL     1      -5.143  -3.278   0.619  1.00  0.00    +0.211 HD
ENDBRANCH  36  41
ENDBRANCH   1  31
TORSDOF 8
