REMARK SMILES NC[C@H](c1ccc(Cl)cc1)c1c[nH]c2nccc(-c3ccc(OCC(F)(F)F)cc3)c12
REMARK SMILES IDX 11 1 12 2 13 3 14 4 15 5 16 6 17 7 18 8 31 9 3 11 2 12 1 13
REMARK SMILES IDX 4 16 5 17 10 18 6 19 9 20 7 21 8 22 19 23 20 24 30 25 21 26
REMARK SMILES IDX 29 27 22 28 23 29 24 30 25 31 26 32 27 33 28 34
REMARK H PARENT 13 10 1 14 1 15
ROOT
ATOM      1  C   UNL     1      -1.873  -1.496  -1.011  1.00  0.00    -0.012 A 
ATOM      2  C   UNL     1      -3.082  -1.987  -1.514  1.00  0.00    +0.089 A 
ATOM      3  N   UNL     1      -3.188  -1.749  -2.838  1.00  0.00    -0.346 N 
ATOM      4  C   UNL     1      -2.068  -1.102  -3.183  1.00  0.00    +0.138 A 
ATOM      5  N   UNL     1      -1.826  -0.561  -4.406  1.00  0.00    -0.239 NA
ATOM      6  C   UNL     1      -0.689   0.163  -4.605  1.00  0.00    +0.114 A 
ATOM      7  C   UNL     1       0.228   0.352  -3.555  1.00  0.00    +0.029 A 
ATOM      8  C   UNL     1      -0.023  -0.202  -2.279  1.00  0.00    -0.006 A 
ATOM      9  C   UNL     1      -1.222  -0.928  -2.113  1.00  0.00    +0.030 A 
ATOM     10  H   UNL     1      -4.007  -1.961  -3.450  1.00  0.00    +0.167 HD
ENDROOT
BRANCH   1  11
ATOM     11  C   UNL     1      -1.544  -1.334   0.464  1.00  0.00    +0.065 C 
BRANCH  11  12
ATOM     12  C   UNL     1      -2.176  -2.450   1.328  1.00  0.00    +0.090 C 
BRANCH  12  13
ATOM     13  N   UNL     1      -1.661  -2.395   2.696  1.00  0.00    -0.330 NA
ATOM     14  H   UNL     1      -2.014  -3.242   3.194  1.00  0.00    +0.118 HD
ATOM     15  H   UNL     1      -2.094  -1.576   3.177  1.00  0.00    +0.118 HD
ENDBRANCH  12  13
ENDBRANCH  11  12
BRANCH  11  16
ATOM     16  C   UNL     1      -1.962   0.047   0.945  1.00  0.00    -0.039 A 
ATOM     17  C   UNL     1      -1.017   0.903   1.544  1.00  0.00    +0.006 A 
ATOM     18  C   UNL     1      -3.300   0.484   0.823  1.00  0.00    +0.006 A 
ATOM     19  C   UNL     1      -1.388   2.186   1.965  1.00  0.00    +0.021 A 
ATOM     20  C   UNL     1      -3.667   1.762   1.259  1.00  0.00    +0.021 A 
ATOM     21  C   UNL     1      -2.710   2.619   1.821  1.00  0.00    +0.041 A 
ATOM     22 Cl   UNL     1      -3.170   4.228   2.354  1.00  0.00    -0.084 Cl
ENDBRANCH  11  16
ENDBRANCH   1  11
BRANCH   8  23
ATOM     23  C   UNL     1       1.011  -0.069  -1.236  1.00  0.00    -0.017 A 
ATOM     24  C   UNL     1       1.687  -1.205  -0.764  1.00  0.00    +0.012 A 
ATOM     25  C   UNL     1       1.416   1.206  -0.802  1.00  0.00    +0.012 A 
ATOM     26  C   UNL     1       2.716  -1.072   0.174  1.00  0.00    +0.047 A 
ATOM     27  C   UNL     1       2.452   1.340   0.128  1.00  0.00    +0.047 A 
ATOM     28  C   UNL     1       3.109   0.196   0.627  1.00  0.00    +0.119 A 
BRANCH  28  29
ATOM     29  O   UNL     1       4.150   0.275   1.563  1.00  0.00    -0.484 OA
BRANCH  29  30
ATOM     30  C   UNL     1       4.689   1.495   2.074  1.00  0.00    +0.344 C 
BRANCH  30  31
ATOM     31  C   UNL     1       5.798   1.185   3.072  1.00  0.00    +0.422 C 
ATOM     32  F   UNL     1       5.299   0.406   4.103  1.00  0.00    -0.167 F 
ATOM     33  F   UNL     1       6.825   0.500   2.441  1.00  0.00    -0.167 F 
ATOM     34  F   UNL     1       6.297   2.368   3.593  1.00  0.00    -0.167 F 
ENDBRANCH  30  31
ENDBRANCH  29  30
ENDBRANCH  28  29
ENDBRANCH   8  23
TORSDOF 8
