REMARK SMILES CC(C)NC[C@@H](C(=O)N1CCN(c2ncnc3c2[C@H](C)C[C@H]3O)CC1)c1ccc(Cl)cc1
REMARK SMILES IDX 6 1 7 2 12 3 11 4 24 5 10 6 25 7 9 8 8 9 13 10 19 11 21 12
REMARK SMILES IDX 18 13 22 14 17 15 16 16 14 17 15 18 20 19 23 20 5 22 4 23
REMARK SMILES IDX 2 25 1 26 3 27 26 28 27 29 32 30 28 31 31 32 29 33 30 34
REMARK H PARENT 23 21 4 24
ROOT
ATOM      1  C   UNL     1       2.505   0.779  -0.274  1.00  0.00    +0.122 C 
ENDROOT
BRANCH   1   2
ATOM      2  C   UNL     1       1.293   0.727  -1.224  1.00  0.00    +0.231 C 
ATOM      3  N   UNL     1      -2.760   0.901   0.280  1.00  0.00    -0.353 N 
ATOM      4  C   UNL     1      -1.635   1.190   1.195  1.00  0.00    +0.139 C 
ATOM      5  C   UNL     1      -2.426   1.204  -1.129  1.00  0.00    +0.139 C 
ATOM      6  C   UNL     1      -0.287   0.591   0.746  1.00  0.00    +0.141 C 
ATOM      7  C   UNL     1      -1.114   0.541  -1.581  1.00  0.00    +0.141 C 
ATOM      8  N   UNL     1       0.010   0.815  -0.678  1.00  0.00    -0.339 N 
ATOM      9  O   UNL     1       1.456   0.619  -2.444  1.00  0.00    -0.274 OA
BRANCH   3  10
ATOM     10  C   UNL     1      -3.340  -0.364   0.448  1.00  0.00    +0.135 A 
ATOM     11  C   UNL     1      -5.726   0.360  -0.366  1.00  0.00    +0.025 C 
ATOM     12  C   UNL     1      -6.779  -0.645  -0.884  1.00  0.00    +0.046 C 
ATOM     13  C   UNL     1      -4.659  -0.575   0.122  1.00  0.00    +0.022 A 
ATOM     14  C   UNL     1      -6.636  -1.901  -0.019  1.00  0.00    +0.164 C 
ATOM     15  C   UNL     1      -5.166  -1.847   0.320  1.00  0.00    +0.078 A 
ATOM     16  N   UNL     1      -4.471  -2.891   0.786  1.00  0.00    -0.238 NA
ATOM     17  N   UNL     1      -2.610  -1.378   0.953  1.00  0.00    -0.219 NA
ATOM     18  C   UNL     1      -3.203  -2.584   1.087  1.00  0.00    +0.224 A 
ATOM     19  C   UNL     1      -6.267   1.246   0.751  1.00  0.00    +0.013 C 
BRANCH  14  20
ATOM     20  O   UNL     1      -6.984  -3.070  -0.739  1.00  0.00    -0.387 OA
ATOM     21  H   UNL     1      -6.310  -3.736  -0.500  1.00  0.00    +0.211 HD
ENDBRANCH  14  20
ENDBRANCH   3  10
ENDBRANCH   1   2
BRANCH   1  22
ATOM     22  C   UNL     1       3.775   1.162  -1.080  1.00  0.00    +0.099 C 
BRANCH  22  23
ATOM     23  N   UNL     1       4.890   1.567  -0.199  1.00  0.00    -0.313 NA
ATOM     24  H   UNL     1       4.616   2.413   0.301  1.00  0.00    +0.122 HD
BRANCH  23  25
ATOM     25  C   UNL     1       6.131   1.825  -0.943  1.00  0.00    +0.047 C 
ATOM     26  C   UNL     1       6.815   0.522  -1.360  1.00  0.00    +0.024 C 
ATOM     27  C   UNL     1       7.076   2.632  -0.046  1.00  0.00    +0.024 C 
ENDBRANCH  23  25
ENDBRANCH  22  23
ENDBRANCH   1  22
BRANCH   1  28
ATOM     28  C   UNL     1       2.712  -0.536   0.474  1.00  0.00    -0.034 A 
ATOM     29  C   UNL     1       3.055  -0.519   1.836  1.00  0.00    +0.006 A 
ATOM     30  C   UNL     1       2.594  -1.776  -0.175  1.00  0.00    +0.006 A 
ATOM     31  C   UNL     1       3.249  -1.711   2.537  1.00  0.00    +0.021 A 
ATOM     32  C   UNL     1       2.786  -2.968   0.527  1.00  0.00    +0.021 A 
ATOM     33  C   UNL     1       3.110  -2.931   1.880  1.00  0.00    +0.041 A 
ATOM     34 Cl   UNL     1       3.344  -4.400   2.745  1.00  0.00    -0.084 Cl
ENDBRANCH   1  28
TORSDOF 7
