REMARK SMILES CC(C)NC[C@@H](C(=O)N1CCN(c2ncnc3c2[C@H](C)C[C@H]3O)CC1)c1ccc(Cl)cc1
REMARK SMILES IDX 6 1 7 2 12 3 11 4 24 5 10 6 25 7 9 8 8 9 13 10 19 11 21 12
REMARK SMILES IDX 18 13 22 14 17 15 16 16 14 17 15 18 20 19 23 20 5 22 4 23
REMARK SMILES IDX 2 25 1 26 3 27 26 28 27 29 32 30 28 31 31 32 29 33 30 34
REMARK H PARENT 23 21 4 24
ROOT
ATOM      1  C   UNL     1      -2.668  -0.511   0.002  1.00  0.00    +0.122 C 
ENDROOT
BRANCH   1   2
ATOM      2  C   UNL     1      -1.479  -0.707  -0.959  1.00  0.00    +0.231 C 
ATOM      3  N   UNL     1       2.506   0.308   0.228  1.00  0.00    -0.353 N 
ATOM      4  C   UNL     1       1.379   0.803   1.050  1.00  0.00    +0.139 C 
ATOM      5  C   UNL     1       2.134   0.289  -1.206  1.00  0.00    +0.139 C 
ATOM      6  C   UNL     1       0.162  -0.126   0.881  1.00  0.00    +0.141 C 
ATOM      7  C   UNL     1       0.922  -0.636  -1.421  1.00  0.00    +0.141 C 
ATOM      8  N   UNL     1      -0.207  -0.330  -0.530  1.00  0.00    -0.339 N 
ATOM      9  O   UNL     1      -1.659  -1.145  -2.099  1.00  0.00    -0.274 OA
BRANCH   3  10
ATOM     10  C   UNL     1       3.673   1.077   0.415  1.00  0.00    +0.135 A 
ATOM     11  C   UNL     1       5.305  -0.905  -0.098  1.00  0.00    +0.025 C 
ATOM     12  C   UNL     1       6.773  -0.694  -0.533  1.00  0.00    +0.046 C 
ATOM     13  C   UNL     1       4.907   0.499   0.239  1.00  0.00    +0.022 A 
ATOM     14  C   UNL     1       7.288   0.510   0.263  1.00  0.00    +0.164 C 
ATOM     15  C   UNL     1       6.015   1.302   0.437  1.00  0.00    +0.078 A 
ATOM     16  N   UNL     1       5.980   2.598   0.768  1.00  0.00    -0.238 NA
ATOM     17  N   UNL     1       3.583   2.375   0.770  1.00  0.00    -0.219 NA
ATOM     18  C   UNL     1       4.733   3.067   0.921  1.00  0.00    +0.224 A 
ATOM     19  C   UNL     1       5.182  -1.841   1.100  1.00  0.00    +0.013 C 
BRANCH  14  20
ATOM     20  O   UNL     1       8.276   1.224  -0.460  1.00  0.00    -0.387 OA
ATOM     21  H   UNL     1       8.064   2.169  -0.331  1.00  0.00    +0.211 HD
ENDBRANCH  14  20
ENDBRANCH   3  10
ENDBRANCH   1   2
BRANCH   1  22
ATOM     22  C   UNL     1      -3.878  -1.344  -0.501  1.00  0.00    +0.099 C 
BRANCH  22  23
ATOM     23  N   UNL     1      -4.974  -1.377   0.487  1.00  0.00    -0.313 NA
ATOM     24  H   UNL     1      -5.283  -0.417   0.656  1.00  0.00    +0.122 HD
BRANCH  23  25
ATOM     25  C   UNL     1      -6.146  -2.174   0.092  1.00  0.00    +0.047 C 
ATOM     26  C   UNL     1      -6.886  -1.590  -1.112  1.00  0.00    +0.024 C 
ATOM     27  C   UNL     1      -5.822  -3.653  -0.123  1.00  0.00    +0.024 C 
ENDBRANCH  23  25
ENDBRANCH  22  23
ENDBRANCH   1  22
BRANCH   1  28
ATOM     28  C   UNL     1      -3.036   0.965   0.155  1.00  0.00    -0.034 A 
ATOM     29  C   UNL     1      -3.295   1.492   1.432  1.00  0.00    +0.006 A 
ATOM     30  C   UNL     1      -3.156   1.808  -0.961  1.00  0.00    +0.006 A 
ATOM     31  C   UNL     1      -3.646   2.834   1.589  1.00  0.00    +0.021 A 
ATOM     32  C   UNL     1      -3.506   3.151  -0.802  1.00  0.00    +0.021 A 
ATOM     33  C   UNL     1      -3.747   3.659   0.472  1.00  0.00    +0.041 A 
ATOM     34 Cl   UNL     1      -4.179   5.312   0.667  1.00  0.00    -0.084 Cl
ENDBRANCH   1  28
TORSDOF 7
