REMARK SMILES CC(C)NC[C@@H](C(=O)N1CCN(c2ncnc3c2[C@H](C)C[C@H]3O)CC1)c1ccc(Cl)cc1
REMARK SMILES IDX 6 1 7 2 12 3 11 4 24 5 10 6 25 7 9 8 8 9 13 10 19 11 21 12
REMARK SMILES IDX 18 13 22 14 17 15 16 16 14 17 15 18 20 19 23 20 5 22 4 23
REMARK SMILES IDX 2 25 1 26 3 27 26 28 27 29 32 30 28 31 31 32 29 33 30 34
REMARK H PARENT 23 21 4 24
ROOT
ATOM      1  C   UNL     1       2.532   0.650   0.236  1.00  0.00    +0.122 C 
ENDROOT
BRANCH   1   2
ATOM      2  C   UNL     1       1.526   0.503   1.391  1.00  0.00    +0.231 C 
ATOM      3  N   UNL     1      -2.464  -1.010   0.597  1.00  0.00    -0.353 N 
ATOM      4  C   UNL     1      -2.125  -0.010   1.645  1.00  0.00    +0.139 C 
ATOM      5  C   UNL     1      -1.292  -1.643  -0.051  1.00  0.00    +0.139 C 
ATOM      6  C   UNL     1      -0.697  -0.193   2.191  1.00  0.00    +0.141 C 
ATOM      7  C   UNL     1      -0.087  -0.693  -0.168  1.00  0.00    +0.141 C 
ATOM      8  N   UNL     1       0.311  -0.118   1.127  1.00  0.00    -0.339 N 
ATOM      9  O   UNL     1       1.804   0.882   2.532  1.00  0.00    -0.274 OA
BRANCH   3  10
ATOM     10  C   UNL     1      -3.372  -0.460  -0.329  1.00  0.00    +0.135 A 
ATOM     11  C   UNL     1      -5.488  -0.792   1.184  1.00  0.00    +0.025 C 
ATOM     12  C   UNL     1      -6.799   0.002   0.986  1.00  0.00    +0.046 C 
ATOM     13  C   UNL     1      -4.708  -0.358  -0.020  1.00  0.00    +0.022 A 
ATOM     14  C   UNL     1      -6.977   0.167  -0.527  1.00  0.00    +0.164 C 
ATOM     15  C   UNL     1      -5.538   0.189  -0.982  1.00  0.00    +0.078 A 
ATOM     16  N   UNL     1      -5.143   0.647  -2.175  1.00  0.00    -0.238 NA
ATOM     17  N   UNL     1      -2.926  -0.029  -1.528  1.00  0.00    -0.219 NA
ATOM     18  C   UNL     1      -3.827   0.505  -2.382  1.00  0.00    +0.224 A 
ATOM     19  C   UNL     1      -5.719  -2.299   1.208  1.00  0.00    +0.013 C 
BRANCH  14  20
ATOM     20  O   UNL     1      -7.664   1.365  -0.841  1.00  0.00    -0.387 OA
ATOM     21  H   UNL     1      -7.189   1.748  -1.604  1.00  0.00    +0.211 HD
ENDBRANCH  14  20
ENDBRANCH   3  10
ENDBRANCH   1   2
BRANCH   1  22
ATOM     22  C   UNL     1       3.521  -0.536   0.315  1.00  0.00    +0.099 C 
BRANCH  22  23
ATOM     23  N   UNL     1       4.349  -0.638  -0.900  1.00  0.00    -0.313 NA
ATOM     24  H   UNL     1       4.807   0.265  -1.051  1.00  0.00    +0.122 HD
BRANCH  23  25
ATOM     25  C   UNL     1       5.383  -1.679  -0.803  1.00  0.00    +0.047 C 
ATOM     26  C   UNL     1       4.785  -3.086  -0.854  1.00  0.00    +0.024 C 
ATOM     27  C   UNL     1       6.362  -1.495  -1.965  1.00  0.00    +0.024 C 
ENDBRANCH  23  25
ENDBRANCH  22  23
ENDBRANCH   1  22
BRANCH   1  28
ATOM     28  C   UNL     1       3.217   2.018   0.221  1.00  0.00    -0.034 A 
ATOM     29  C   UNL     1       4.086   2.426   1.246  1.00  0.00    +0.006 A 
ATOM     30  C   UNL     1       2.986   2.897  -0.851  1.00  0.00    +0.006 A 
ATOM     31  C   UNL     1       4.709   3.676   1.200  1.00  0.00    +0.021 A 
ATOM     32  C   UNL     1       3.611   4.147  -0.898  1.00  0.00    +0.021 A 
ATOM     33  C   UNL     1       4.470   4.530   0.128  1.00  0.00    +0.041 A 
ATOM     34 Cl   UNL     1       5.239   6.068   0.070  1.00  0.00    -0.084 Cl
ENDBRANCH   1  28
TORSDOF 7
