REMARK SMILES CC(C)NC[C@@H](C(=O)N1CCN(c2ncnc3c2[C@H](C)C[C@H]3O)CC1)c1ccc(Cl)cc1
REMARK SMILES IDX 6 1 7 2 12 3 11 4 24 5 10 6 25 7 9 8 8 9 13 10 19 11 21 12
REMARK SMILES IDX 18 13 22 14 17 15 16 16 14 17 15 18 20 19 23 20 5 22 4 23
REMARK SMILES IDX 2 25 1 26 3 27 26 28 27 29 32 30 28 31 31 32 29 33 30 34
REMARK H PARENT 23 21 4 24
ROOT
ATOM      1  C   UNL     1       2.463  -0.138  -0.705  1.00  0.00    +0.122 C 
ENDROOT
BRANCH   1   2
ATOM      2  C   UNL     1       1.295  -1.138  -0.804  1.00  0.00    +0.231 C 
ATOM      3  N   UNL     1      -2.451  -0.083   0.930  1.00  0.00    -0.353 N 
ATOM      4  C   UNL     1      -2.321  -1.109  -0.131  1.00  0.00    +0.139 C 
ATOM      5  C   UNL     1      -1.259   0.094   1.782  1.00  0.00    +0.139 C 
ATOM      6  C   UNL     1      -0.964  -1.839  -0.104  1.00  0.00    +0.141 C 
ATOM      7  C   UNL     1       0.004   0.213   0.910  1.00  0.00    +0.141 C 
ATOM      8  N   UNL     1       0.170  -0.912  -0.023  1.00  0.00    -0.339 N 
ATOM      9  O   UNL     1       1.365  -2.119  -1.550  1.00  0.00    -0.274 OA
BRANCH   3  10
ATOM     10  C   UNL     1      -3.657  -0.130   1.640  1.00  0.00    +0.135 A 
ATOM     11  C   UNL     1      -5.224   0.413  -0.398  1.00  0.00    +0.025 C 
ATOM     12  C   UNL     1      -6.738   0.108  -0.408  1.00  0.00    +0.046 C 
ATOM     13  C   UNL     1      -4.868   0.077   1.020  1.00  0.00    +0.022 A 
ATOM     14  C   UNL     1      -7.237   0.373   1.014  1.00  0.00    +0.164 C 
ATOM     15  C   UNL     1      -6.002   0.046   1.816  1.00  0.00    +0.078 A 
ATOM     16  N   UNL     1      -6.018  -0.193   3.132  1.00  0.00    -0.238 NA
ATOM     17  N   UNL     1      -3.625  -0.346   2.972  1.00  0.00    -0.219 NA
ATOM     18  C   UNL     1      -4.795  -0.377   3.645  1.00  0.00    +0.224 A 
ATOM     19  C   UNL     1      -4.921   1.868  -0.738  1.00  0.00    +0.013 C 
BRANCH  14  20
ATOM     20  O   UNL     1      -8.334  -0.461   1.343  1.00  0.00    -0.387 OA
ATOM     21  H   UNL     1      -8.169  -0.763   2.258  1.00  0.00    +0.211 HD
ENDBRANCH  14  20
ENDBRANCH   3  10
ENDBRANCH   1   2
BRANCH   1  22
ATOM     22  C   UNL     1       3.319  -0.223  -1.995  1.00  0.00    +0.099 C 
BRANCH  22  23
ATOM     23  N   UNL     1       4.223   0.937  -2.139  1.00  0.00    -0.313 NA
ATOM     24  H   UNL     1       3.656   1.778  -2.244  1.00  0.00    +0.122 HD
BRANCH  23  25
ATOM     25  C   UNL     1       5.122   0.811  -3.295  1.00  0.00    +0.047 C 
ATOM     26  C   UNL     1       6.268  -0.160  -3.010  1.00  0.00    +0.024 C 
ATOM     27  C   UNL     1       5.695   2.195  -3.617  1.00  0.00    +0.024 C 
ENDBRANCH  23  25
ENDBRANCH  22  23
ENDBRANCH   1  22
BRANCH   1  28
ATOM     28  C   UNL     1       3.321  -0.368   0.537  1.00  0.00    -0.034 A 
ATOM     29  C   UNL     1       3.669  -1.662   0.962  1.00  0.00    +0.006 A 
ATOM     30  C   UNL     1       3.809   0.733   1.261  1.00  0.00    +0.006 A 
ATOM     31  C   UNL     1       4.462  -1.848   2.097  1.00  0.00    +0.021 A 
ATOM     32  C   UNL     1       4.603   0.545   2.395  1.00  0.00    +0.021 A 
ATOM     33  C   UNL     1       4.923  -0.745   2.810  1.00  0.00    +0.041 A 
ATOM     34 Cl   UNL     1       5.899  -0.976   4.208  1.00  0.00    -0.084 Cl
ENDBRANCH   1  28
TORSDOF 7
