REMARK SMILES CC(C)NC[C@@H](C(=O)N1CCN(c2ncnc3c2[C@H](C)C[C@H]3O)CC1)c1ccc(Cl)cc1
REMARK SMILES IDX 6 1 7 2 12 3 11 4 24 5 10 6 25 7 9 8 8 9 13 10 19 11 21 12
REMARK SMILES IDX 18 13 22 14 17 15 16 16 14 17 15 18 20 19 23 20 5 22 4 23
REMARK SMILES IDX 2 25 1 26 3 27 26 28 27 29 32 30 28 31 31 32 29 33 30 34
REMARK H PARENT 23 21 4 24
ROOT
ATOM      1  C   UNL     1       2.138  -0.580   1.384  1.00  0.00    +0.122 C 
ENDROOT
BRANCH   1   2
ATOM      2  C   UNL     1       0.667  -0.353   1.780  1.00  0.00    +0.231 C 
ATOM      3  N   UNL     1      -2.067   1.037  -1.185  1.00  0.00    -0.353 N 
ATOM      4  C   UNL     1      -0.788   1.763  -1.069  1.00  0.00    +0.139 C 
ATOM      5  C   UNL     1      -2.504   0.326   0.040  1.00  0.00    +0.139 C 
ATOM      6  C   UNL     1       0.274   0.867  -0.407  1.00  0.00    +0.141 C 
ATOM      7  C   UNL     1      -1.562   0.554   1.238  1.00  0.00    +0.141 C 
ATOM      8  N   UNL     1      -0.153   0.334   0.895  1.00  0.00    -0.339 N 
ATOM      9  O   UNL     1       0.238  -0.754   2.866  1.00  0.00    -0.274 OA
BRANCH   3  10
ATOM     10  C   UNL     1      -3.076   1.757  -1.834  1.00  0.00    +0.135 A 
ATOM     11  C   UNL     1      -4.584  -0.312  -2.425  1.00  0.00    +0.025 C 
ATOM     12  C   UNL     1      -6.081  -0.193  -2.788  1.00  0.00    +0.046 C 
ATOM     13  C   UNL     1      -4.187   1.133  -2.357  1.00  0.00    +0.022 A 
ATOM     14  C   UNL     1      -6.224   1.096  -3.601  1.00  0.00    +0.164 C 
ATOM     15  C   UNL     1      -5.112   1.929  -3.011  1.00  0.00    +0.078 A 
ATOM     16  N   UNL     1      -5.028   3.257  -3.156  1.00  0.00    -0.238 NA
ATOM     17  N   UNL     1      -2.937   3.092  -1.983  1.00  0.00    -0.219 NA
ATOM     18  C   UNL     1      -3.915   3.771  -2.620  1.00  0.00    +0.224 A 
ATOM     19  C   UNL     1      -3.789  -1.078  -3.476  1.00  0.00    +0.013 C 
BRANCH  14  20
ATOM     20  O   UNL     1      -7.499   1.686  -3.418  1.00  0.00    -0.387 OA
ATOM     21  H   UNL     1      -7.333   2.645  -3.327  1.00  0.00    +0.211 HD
ENDBRANCH  14  20
ENDBRANCH   3  10
ENDBRANCH   1   2
BRANCH   1  22
ATOM     22  C   UNL     1       2.670  -1.838   2.120  1.00  0.00    +0.099 C 
BRANCH  22  23
ATOM     23  N   UNL     1       3.996  -2.257   1.621  1.00  0.00    -0.313 NA
ATOM     24  H   UNL     1       4.643  -1.478   1.762  1.00  0.00    +0.122 HD
BRANCH  23  25
ATOM     25  C   UNL     1       4.520  -3.433   2.332  1.00  0.00    +0.047 C 
ATOM     26  C   UNL     1       3.794  -4.716   1.924  1.00  0.00    +0.024 C 
ATOM     27  C   UNL     1       6.012  -3.565   2.008  1.00  0.00    +0.024 C 
ENDBRANCH  23  25
ENDBRANCH  22  23
ENDBRANCH   1  22
BRANCH   1  28
ATOM     28  C   UNL     1       3.005   0.644   1.675  1.00  0.00    -0.034 A 
ATOM     29  C   UNL     1       3.930   1.087   0.715  1.00  0.00    +0.006 A 
ATOM     30  C   UNL     1       2.926   1.324   2.901  1.00  0.00    +0.006 A 
ATOM     31  C   UNL     1       4.742   2.195   0.967  1.00  0.00    +0.021 A 
ATOM     32  C   UNL     1       3.738   2.433   3.152  1.00  0.00    +0.021 A 
ATOM     33  C   UNL     1       4.641   2.864   2.184  1.00  0.00    +0.041 A 
ATOM     34 Cl   UNL     1       5.642   4.229   2.494  1.00  0.00    -0.084 Cl
ENDBRANCH   1  28
TORSDOF 7
