REMARK SMILES CCC1(O)C(=O)OCc2c1cc1n(c2=O)Cc2cc3cc(OC(=O)N4CCC(N5CCCCC5)CC4)ccc3nc2-1
REMARK SMILES IDX 3 1 5 2 6 3 7 4 8 5 9 6 10 7 11 8 12 9 41 10 40 11 39 12
REMARK SMILES IDX 38 13 37 14 21 15 20 16 19 17 18 18 17 19 16 20 13 21 14 22
REMARK SMILES IDX 15 23 2 24 1 25 4 26 22 28 23 29 24 30 25 31 26 32 36 33
REMARK SMILES IDX 27 34 35 35 28 36 29 37 30 38 34 39 31 40 33 41 32 42
REMARK H PARENT 4 27
ROOT
ATOM      1  C   UNL     1      -9.105   1.061   0.597  1.00  0.00    +0.187 C 
ATOM      2  C   UNL     1     -10.302   1.191  -0.326  1.00  0.00    +0.343 C 
ATOM      3  O   UNL     1     -11.068   2.187  -0.239  1.00  0.00    -0.248 OA
ATOM      4  O   UNL     1     -10.562   0.215  -1.291  1.00  0.00    -0.458 OA
ATOM      5  C   UNL     1      -9.807  -0.991  -1.373  1.00  0.00    +0.275 C 
ATOM      6  C   UNL     1      -8.353  -0.736  -1.060  1.00  0.00    +0.062 A 
ATOM      7  C   UNL     1      -8.010   0.258  -0.103  1.00  0.00    +0.009 A 
ATOM      8  C   UNL     1      -6.658   0.431   0.259  1.00  0.00    +0.036 A 
ATOM      9  C   UNL     1      -5.702  -0.366  -0.360  1.00  0.00    +0.071 A 
ATOM     10  C   UNL     1      -4.273  -0.371  -0.174  1.00  0.00    +0.092 A 
ATOM     11  N   UNL     1      -3.506   0.418   0.617  1.00  0.00    -0.246 NA
ATOM     12  C   UNL     1      -2.150   0.248   0.612  1.00  0.00    +0.071 A 
ATOM     13  C   UNL     1      -1.343   1.052   1.421  1.00  0.00    +0.033 A 
ATOM     14  C   UNL     1       0.044   0.892   1.406  1.00  0.00    +0.049 A 
ATOM     15  C   UNL     1       0.649  -0.065   0.581  1.00  0.00    +0.133 A 
ATOM     16  C   UNL     1      -0.156  -0.902  -0.218  1.00  0.00    +0.057 A 
ATOM     17  C   UNL     1      -1.550  -0.747  -0.218  1.00  0.00    +0.004 A 
ATOM     18  C   UNL     1      -2.371  -1.556  -1.030  1.00  0.00    +0.018 A 
ATOM     19  C   UNL     1      -3.746  -1.340  -0.989  1.00  0.00    +0.000 A 
ATOM     20  C   UNL     1      -4.847  -2.014  -1.754  1.00  0.00    +0.164 C 
ATOM     21  N   UNL     1      -6.042  -1.305  -1.270  1.00  0.00    -0.302 N 
ATOM     22  C   UNL     1      -7.334  -1.528  -1.634  1.00  0.00    +0.258 A 
ATOM     23  O   UNL     1      -7.611  -2.434  -2.467  1.00  0.00    -0.269 OA
ENDROOT
BRANCH   1  24
ATOM     24  C   UNL     1      -9.503   0.315   1.893  1.00  0.00    +0.049 C 
ATOM     25  C   UNL     1     -10.583   1.033   2.710  1.00  0.00    +0.008 C 
ENDBRANCH   1  24
BRANCH   1  26
ATOM     26  O   UNL     1      -8.628   2.344   0.936  1.00  0.00    -0.374 OA
ATOM     27  H   UNL     1      -8.358   2.799   0.096  1.00  0.00    +0.212 HD
ENDBRANCH   1  26
BRANCH  15  28
ATOM     28  O   UNL     1       2.048  -0.174   0.614  1.00  0.00    -0.410 OA
BRANCH  28  29
ATOM     29  C   UNL     1       2.869  -0.573  -0.452  1.00  0.00    +0.415 C 
ATOM     30  O   UNL     1       2.395  -0.689  -1.614  1.00  0.00    -0.224 OA
ATOM     31  N   UNL     1       4.278  -0.785  -0.229  1.00  0.00    -0.308 N 
ATOM     32  C   UNL     1       5.162  -1.055  -1.374  1.00  0.00    +0.124 C 
ATOM     33  C   UNL     1       4.831  -0.809   1.134  1.00  0.00    +0.124 C 
ATOM     34  C   UNL     1       6.645  -0.909  -0.993  1.00  0.00    +0.041 C 
ATOM     35  C   UNL     1       6.056   0.118   1.265  1.00  0.00    +0.041 C 
ATOM     36  C   UNL     1       6.819   0.314  -0.064  1.00  0.00    +0.060 C 
BRANCH  36  37
ATOM     37  N   UNL     1       8.235   0.682   0.208  1.00  0.00    -0.300 NA
ATOM     38  C   UNL     1       9.149  -0.460   0.431  1.00  0.00    +0.085 C 
ATOM     39  C   UNL     1       8.775   1.610  -0.812  1.00  0.00    +0.085 C 
ATOM     40  C   UNL     1      10.466   0.021   1.068  1.00  0.00    +0.016 C 
ATOM     41  C   UNL     1      10.269   1.927  -0.583  1.00  0.00    +0.016 C 
ATOM     42  C   UNL     1      10.727   1.516   0.821  1.00  0.00    +0.003 C 
ENDBRANCH  36  37
ENDBRANCH  28  29
ENDBRANCH  15  28
TORSDOF 5
