REMARK SMILES Cc1csc(/C=C2/[C@H](C)[C@H](O)[C@@H](C)NC(=O)C[C@H](O)C(C)(C)CCCC(C)C2(C)C)n1
REMARK SMILES IDX 10 1 8 2 9 3 7 4 6 5 28 6 29 7 30 8 26 9 27 10 25 11 24 12
REMARK SMILES IDX 5 14 31 15 4 16 2 17 3 18 1 19 12 20 13 21 14 22 15 23 16 24
REMARK SMILES IDX 17 26 18 27 20 28 21 29 22 30 23 31 19 33 11 35
REMARK H PARENT 14 25 19 34 11 36
REMARK Flexibility Score:   43.900
ROOT
ATOM      1  C   UNL     1       0.125   3.069   1.216  1.00  0.00    +0.143 C 
ENDROOT
BRANCH   1   2
ATOM      2  C   UNL     1       1.334   2.259   1.816  1.00  0.00    +0.043 C 
ATOM      3  C   UNL     1       1.273   2.249   3.354  1.00  0.00    +0.015 C 
BRANCH   2   4
ATOM      4  C   UNL     1       1.688   0.932   1.040  1.00  0.00    -0.056 C 
ATOM      5  C   UNL     1       2.148   1.222  -0.218  1.00  0.00    +0.039 C 
BRANCH   4   6
ATOM      6  C   UNL     1       1.937  -0.480   1.731  1.00  0.00    -0.011 C 
ATOM      7  C   UNL     1       3.406  -0.424   2.237  1.00  0.00    +0.016 C 
ATOM      8  C   UNL     1       1.036  -0.700   2.982  1.00  0.00    +0.016 C 
BRANCH   6   9
ATOM      9  C   UNL     1       1.731  -1.784   0.796  1.00  0.00    -0.004 C 
ATOM     10  C   UNL     1       2.551  -3.012   1.280  1.00  0.00    +0.008 C 
BRANCH   9  11
ATOM     11  C   UNL     1       0.265  -2.276   0.573  1.00  0.00    +0.004 C 
BRANCH  11  12
ATOM     12  C   UNL     1      -0.646  -1.335  -0.225  1.00  0.00    +0.001 CG0
ATOM     13  G   UNL     1      -1.891  -2.104  -0.732  1.00  0.00    +0.000 G0
ENDBRANCH  11  12
ENDBRANCH   9  11
ENDBRANCH   6   9
ENDBRANCH   4   6
BRANCH   5  14
ATOM     14  C   UNL     1       2.853   0.372  -1.178  1.00  0.00    +0.116 A 
ATOM     15  N   UNL     1       2.253  -0.152  -2.269  1.00  0.00    -0.242 NA
ATOM     16  S   UNL     1       4.518   0.151  -1.233  1.00  0.00    -0.123 S 
ATOM     17  C   UNL     1       3.143  -0.774  -3.088  1.00  0.00    +0.049 A 
ATOM     18  C   UNL     1       4.469  -0.723  -2.669  1.00  0.00    +0.090 A 
ATOM     19  C   UNL     1       2.708  -1.487  -4.325  1.00  0.00    +0.067 C 
ENDBRANCH   5  14
ENDBRANCH   2   4
ENDBRANCH   1   2
BRANCH   1  20
ATOM     20  C   UNL     1      -1.255   2.365   1.383  1.00  0.00    +0.108 C 
ATOM     21  C   UNL     1      -2.079   2.913   2.566  1.00  0.00    +0.033 C 
BRANCH  20  22
ATOM     22  N   UNL     1      -2.056   2.466   0.152  1.00  0.00    -0.351 N 
ATOM     23  C   UNL     1      -1.745   1.737  -1.046  1.00  0.00    +0.222 C 
ATOM     24  O   UNL     1      -0.549   1.525  -1.373  1.00  0.00    -0.275 OA
ATOM     25  H   UNL     1      -2.990   2.935   0.193  1.00  0.00    +0.163 HD
BRANCH  23  26
ATOM     26  C   UNL     1      -2.840   1.291  -1.967  1.00  0.00    +0.132 C 
BRANCH  26  27
ATOM     27  C   UNL     1      -2.774  -0.222  -2.324  1.00  0.00    +0.129 C 
BRANCH  27  28
ATOM     28  C   UNL     1      -3.140  -1.264  -1.168  1.00  0.00    -0.009 C 
ATOM     29  C   UNL     1      -3.783  -0.609   0.082  1.00  0.00    +0.014 C 
ATOM     30  C   UNL     1      -4.179  -2.300  -1.682  1.00  0.00    +0.014 C 
BRANCH  28  31
ATOM     31  C   UNL     1      -1.891  -2.104  -0.732  1.00  0.00    +0.009 CG0
ATOM     32  G   UNL     1      -0.646  -1.335  -0.225  1.00  0.00    +0.000 G0
ENDBRANCH  28  31
ENDBRANCH  27  28
BRANCH  27  33
ATOM     33  O   UNL     1      -3.545  -0.436  -3.484  1.00  0.00    -0.392 OA
ATOM     34  H   UNL     1      -4.455  -0.077  -3.313  1.00  0.00    +0.210 HD
ENDBRANCH  27  33
ENDBRANCH  26  27
ENDBRANCH  23  26
ENDBRANCH  20  22
ENDBRANCH   1  20
BRANCH   1  35
ATOM     35  O   UNL     1       0.082   4.366   1.765  1.00  0.00    -0.390 OA
ATOM     36  H   UNL     1       0.859   4.867   1.404  1.00  0.00    +0.211 HD
ENDBRANCH   1  35
TORSDOF 3
