REMARK SMILES CS(=O)(=O)CCNCc1ccc(-c2ccc3ncnc(Nc4ccc(OCc5cccc(F)c5)c(Cl)c4)c3c2)o1
REMARK SMILES IDX 13 1 39 2 38 3 16 4 15 5 14 6 17 7 18 8 19 9 20 10 12 11
REMARK SMILES IDX 9 12 10 13 40 14 11 15 8 16 7 17 6 19 5 20 2 21 3 22 4 23
REMARK SMILES IDX 1 24 21 25 22 27 37 28 23 29 35 30 24 31 25 32 36 33 26 34
REMARK SMILES IDX 27 35 28 36 34 37 29 38 32 39 30 40 31 41 33 42
REMARK H PARENT 7 18 21 26
ROOT
ATOM      1  C   UNL     1      -2.369  -2.576   3.318  1.00  0.00    +0.018 A 
ATOM      2  C   UNL     1      -1.452  -2.016   2.416  1.00  0.00    +0.026 A 
ATOM      3  C   UNL     1      -0.417  -2.786   1.822  1.00  0.00    +0.044 A 
ATOM      4  C   UNL     1      -0.292  -4.138   2.164  1.00  0.00    +0.076 A 
ATOM      5  C   UNL     1      -1.196  -4.683   3.065  1.00  0.00    +0.030 A 
ATOM      6  C   UNL     1      -2.224  -3.925   3.639  1.00  0.00    +0.014 A 
ATOM      7  N   UNL     1       0.661  -4.929   1.665  1.00  0.00    -0.236 NA
ATOM      8  C   UNL     1       1.520  -4.362   0.813  1.00  0.00    +0.224 A 
ATOM      9  N   UNL     1       1.509  -3.090   0.409  1.00  0.00    -0.219 NA
ATOM     10  C   UNL     1       0.535  -2.300   0.901  1.00  0.00    +0.141 A 
ENDROOT
BRANCH   1  11
ATOM     11  C   UNL     1      -3.448  -1.779   3.890  1.00  0.00    +0.134 A 
ATOM     12  C   UNL     1      -4.752   0.003   3.896  1.00  0.00    +0.118 A 
ATOM     13  C   UNL     1      -5.170  -0.791   4.943  1.00  0.00    +0.047 A 
ATOM     14  O   UNL     1      -3.704  -0.595   3.263  1.00  0.00    -0.460 OA
ATOM     15  C   UNL     1      -4.334  -1.937   4.937  1.00  0.00    +0.051 A 
BRANCH  12  16
ATOM     16  C   UNL     1      -5.216   1.314   3.352  1.00  0.00    +0.157 C 
BRANCH  16  17
ATOM     17  N   UNL     1      -5.359   1.295   1.885  1.00  0.00    -0.309 NA
ATOM     18  H   UNL     1      -5.675   0.363   1.626  1.00  0.00    +0.123 HD
BRANCH  17  19
ATOM     19  C   UNL     1      -4.103   1.655   1.211  1.00  0.00    +0.097 C 
BRANCH  19  20
ATOM     20  C   UNL     1      -4.194   1.514  -0.303  1.00  0.00    +0.152 C 
BRANCH  20  21
ATOM     21  S   UNL     1      -3.483   0.002  -0.930  1.00  0.00    +0.148 S 
ATOM     22  O   UNL     1      -3.634   0.026  -2.373  1.00  0.00    -0.229 OA
ATOM     23  O   UNL     1      -2.163  -0.177  -0.348  1.00  0.00    -0.229 OA
ATOM     24  C   UNL     1      -4.537  -1.289  -0.315  1.00  0.00    +0.158 C 
ENDBRANCH  20  21
ENDBRANCH  19  20
ENDBRANCH  17  19
ENDBRANCH  16  17
ENDBRANCH  12  16
ENDBRANCH   1  11
BRANCH  10  25
ATOM     25  N   UNL     1       0.472  -0.942   0.488  1.00  0.00    -0.340 N 
ATOM     26  H   UNL     1      -0.470  -0.733   0.137  1.00  0.00    +0.168 HD
BRANCH  25  27
ATOM     27  C   UNL     1       1.463  -0.201  -0.198  1.00  0.00    +0.041 A 
ATOM     28  C   UNL     1       2.834  -0.415   0.003  1.00  0.00    +0.050 A 
ATOM     29  C   UNL     1       1.073   0.863  -1.027  1.00  0.00    +0.030 A 
ATOM     30  C   UNL     1       3.787   0.369  -0.652  1.00  0.00    +0.085 A 
ATOM     31  C   UNL     1       2.020   1.650  -1.687  1.00  0.00    +0.050 A 
ATOM     32  C   UNL     1       3.377   1.384  -1.519  1.00  0.00    +0.138 A 
ATOM     33 Cl   UNL     1       5.460   0.059  -0.360  1.00  0.00    -0.080 Cl
BRANCH  32  34
ATOM     34  O   UNL     1       4.281   2.191  -2.159  1.00  0.00    -0.487 OA
BRANCH  34  35
ATOM     35  C   UNL     1       4.587   1.657  -3.453  1.00  0.00    +0.265 C 
BRANCH  35  36
ATOM     36  C   UNL     1       5.681   2.495  -4.070  1.00  0.00    -0.008 A 
ATOM     37  C   UNL     1       5.481   3.153  -5.290  1.00  0.00    +0.046 A 
ATOM     38  C   UNL     1       6.928   2.612  -3.433  1.00  0.00    +0.007 A 
ATOM     39  C   UNL     1       6.508   3.910  -5.846  1.00  0.00    +0.123 A 
ATOM     40  C   UNL     1       7.952   3.375  -4.001  1.00  0.00    +0.003 A 
ATOM     41  C   UNL     1       7.740   4.027  -5.214  1.00  0.00    +0.039 A 
ATOM     42  F   UNL     1       6.305   4.536  -7.013  1.00  0.00    -0.207 F 
ENDBRANCH  35  36
ENDBRANCH  34  35
ENDBRANCH  32  34
ENDBRANCH  25  27
ENDBRANCH  10  25
TORSDOF 11
