REMARK SMILES CS(=O)(=O)CCNCc1ccc(-c2ccc3ncnc(Nc4ccc(OCc5cccc(F)c5)c(Cl)c4)c3c2)o1
REMARK SMILES IDX 13 1 14 2 15 3 16 4 17 5 18 6 19 7 20 8 38 9 39 10 12 11
REMARK SMILES IDX 9 12 10 13 40 14 11 15 8 16 7 17 6 19 5 20 2 21 3 22 4 23
REMARK SMILES IDX 1 24 21 25 22 27 23 28 37 29 24 30 35 31 25 32 36 33 26 34
REMARK SMILES IDX 27 35 28 36 29 37 34 38 30 39 32 40 31 41 33 42
REMARK H PARENT 7 18 21 26
ROOT
ATOM      1  C   UNL     1       2.310  -0.570   1.622  1.00  0.00    +0.018 A 
ATOM      2  C   UNL     1       2.761  -0.952   2.896  1.00  0.00    +0.014 A 
ATOM      3  C   UNL     1       1.891  -0.956   3.987  1.00  0.00    +0.030 A 
ATOM      4  C   UNL     1       0.560  -0.567   3.826  1.00  0.00    +0.076 A 
ATOM      5  N   UNL     1      -0.281  -0.587   4.892  1.00  0.00    -0.236 NA
ATOM      6  C   UNL     1      -1.579  -0.216   4.765  1.00  0.00    +0.224 A 
ATOM      7  N   UNL     1      -2.056   0.193   3.563  1.00  0.00    -0.219 NA
ATOM      8  C   UNL     1      -1.267   0.232   2.454  1.00  0.00    +0.141 A 
ATOM      9  C   UNL     1       0.087  -0.160   2.559  1.00  0.00    +0.044 A 
ATOM     10  C   UNL     1       0.966  -0.182   1.458  1.00  0.00    +0.026 A 
ENDROOT
BRANCH   1  11
ATOM     11  C   UNL     1       3.258  -0.581   0.482  1.00  0.00    +0.134 A 
ATOM     12  C   UNL     1       5.094  -0.819  -0.582  1.00  0.00    +0.118 A 
ATOM     13  C   UNL     1       4.175  -0.395  -1.520  1.00  0.00    +0.047 A 
ATOM     14  O   UNL     1       4.525  -0.917   0.596  1.00  0.00    -0.460 OA
ATOM     15  C   UNL     1       2.987  -0.244  -0.838  1.00  0.00    +0.051 A 
BRANCH  12  16
ATOM     16  C   UNL     1       6.542  -1.082  -0.836  1.00  0.00    +0.157 C 
BRANCH  16  17
ATOM     17  N   UNL     1       7.302   0.161  -0.663  1.00  0.00    -0.309 NA
ATOM     18  H   UNL     1       7.315   0.382   0.362  1.00  0.00    +0.123 HD
BRANCH  17  19
ATOM     19  C   UNL     1       8.695   0.007  -1.110  1.00  0.00    +0.097 C 
BRANCH  19  20
ATOM     20  C   UNL     1       8.819   0.381  -2.589  1.00  0.00    +0.152 C 
BRANCH  20  21
ATOM     21  S   UNL     1      10.507   0.232  -3.156  1.00  0.00    +0.148 S 
ATOM     22  O   UNL     1      11.004  -1.165  -2.914  1.00  0.00    -0.229 OA
ATOM     23  O   UNL     1      10.554   0.522  -4.629  1.00  0.00    -0.229 OA
ATOM     24  C   UNL     1      11.559   1.390  -2.306  1.00  0.00    +0.158 C 
ENDBRANCH  20  21
ENDBRANCH  19  20
ENDBRANCH  17  19
ENDBRANCH  16  17
ENDBRANCH  12  16
ENDBRANCH   1  11
BRANCH   8  25
ATOM     25  N   UNL     1      -1.813   0.734   1.222  1.00  0.00    -0.340 N 
ATOM     26  H   UNL     1      -1.209   1.342   0.624  1.00  0.00    +0.168 HD
BRANCH  25  27
ATOM     27  C   UNL     1      -3.199   0.606   0.858  1.00  0.00    +0.041 A 
ATOM     28  C   UNL     1      -3.973  -0.482   1.296  1.00  0.00    +0.030 A 
ATOM     29  C   UNL     1      -3.780   1.558   0.009  1.00  0.00    +0.050 A 
ATOM     30  C   UNL     1      -5.313  -0.595   0.916  1.00  0.00    +0.050 A 
ATOM     31  C   UNL     1      -5.121   1.447  -0.373  1.00  0.00    +0.085 A 
ATOM     32  C   UNL     1      -5.901   0.373   0.081  1.00  0.00    +0.138 A 
ATOM     33 Cl   UNL     1      -5.817   2.667  -1.429  1.00  0.00    -0.080 Cl
BRANCH  32  34
ATOM     34  O   UNL     1      -7.245   0.300  -0.317  1.00  0.00    -0.487 OA
BRANCH  34  35
ATOM     35  C   UNL     1      -8.150  -0.728   0.074  1.00  0.00    +0.265 C 
BRANCH  35  36
ATOM     36  C   UNL     1      -9.497  -0.449  -0.525  1.00  0.00    -0.008 A 
ATOM     37  C   UNL     1     -10.413   0.376   0.148  1.00  0.00    +0.007 A 
ATOM     38  C   UNL     1      -9.825  -0.949  -1.796  1.00  0.00    +0.046 A 
ATOM     39  C   UNL     1     -11.651   0.673  -0.430  1.00  0.00    +0.003 A 
ATOM     40  C   UNL     1     -11.064  -0.650  -2.371  1.00  0.00    +0.123 A 
ATOM     41  C   UNL     1     -11.977   0.158  -1.688  1.00  0.00    +0.039 A 
ATOM     42  F   UNL     1     -11.378  -1.141  -3.595  1.00  0.00    -0.207 F 
ENDBRANCH  35  36
ENDBRANCH  34  35
ENDBRANCH  32  34
ENDBRANCH  25  27
ENDBRANCH   8  25
TORSDOF 11
