REMARK SMILES CN(Cc1cnc2nc(N)nc(N)c2n1)c1ccc(C(=O)N[C@@H](CCC(=O)O)C(=O)O)cc1
REMARK SMILES IDX 20 1 21 2 22 3 19 5 16 6 17 7 33 8 18 9 32 10 2 11 1 12 3 13
REMARK SMILES IDX 4 14 5 15 15 16 6 17 14 18 7 19 12 20 8 21 11 22 9 23 13 24
REMARK SMILES IDX 10 27 23 30 24 31 25 32 26 33 27 34 28 35 29 37 30 38 31 39
REMARK H PARENT 22 4 13 25 13 26 10 28 10 29 28 36 31 40
ROOT
ATOM      1  C   UNL     1       2.717  -1.375  -0.272  1.00  0.00    +0.251 C 
ATOM      2  O   UNL     1       2.848  -2.116  -1.285  1.00  0.00    -0.269 OA
ATOM      3  N   UNL     1       3.630  -1.511   0.830  1.00  0.00    -0.339 N 
ATOM      4  H   UNL     1       3.374  -1.077   1.746  1.00  0.00    +0.164 HD
ENDROOT
BRANCH   1   5
ATOM      5  C   UNL     1       1.608  -0.392  -0.229  1.00  0.00    +0.039 A 
ATOM      6  C   UNL     1      -0.526   1.473  -0.165  1.00  0.00    +0.037 A 
ATOM      7  C   UNL     1      -0.594   0.323  -0.977  1.00  0.00    +0.027 A 
ATOM      8  C   UNL     1       0.635   1.676   0.605  1.00  0.00    +0.027 A 
ATOM      9  C   UNL     1       0.460  -0.593  -1.011  1.00  0.00    +0.016 A 
ATOM     10  C   UNL     1       1.689   0.759   0.570  1.00  0.00    +0.016 A 
BRANCH   6  11
ATOM     11  N   UNL     1      -1.626   2.418  -0.107  1.00  0.00    -0.369 N 
ATOM     12  C   UNL     1      -1.881   3.176   1.124  1.00  0.00    +0.144 C 
BRANCH  11  13
ATOM     13  C   UNL     1      -2.546   2.608  -1.239  1.00  0.00    +0.174 C 
BRANCH  13  14
ATOM     14  C   UNL     1      -3.861   1.929  -0.969  1.00  0.00    +0.079 A 
ATOM     15  C   UNL     1      -5.064   2.653  -0.960  1.00  0.00    +0.139 A 
ATOM     16  N   UNL     1      -3.892   0.592  -0.722  1.00  0.00    -0.242 NA
ATOM     17  N   UNL     1      -6.235   2.010  -0.704  1.00  0.00    -0.233 NA
ATOM     18  C   UNL     1      -5.061  -0.053  -0.466  1.00  0.00    +0.150 A 
ATOM     19  C   UNL     1      -6.261   0.675  -0.457  1.00  0.00    +0.185 A 
ATOM     20  C   UNL     1      -5.109  -1.430  -0.209  1.00  0.00    +0.157 A 
ATOM     21  N   UNL     1      -7.435   0.044  -0.203  1.00  0.00    -0.191 NA
ATOM     22  N   UNL     1      -6.312  -2.015   0.040  1.00  0.00    -0.194 NA
ATOM     23  C   UNL     1      -7.466  -1.293   0.045  1.00  0.00    +0.224 A 
BRANCH  20  24
ATOM     24  N   UNL     1      -3.923  -2.228  -0.206  1.00  0.00    -0.382 N 
ATOM     25  H   UNL     1      -2.983  -1.811  -0.386  1.00  0.00    +0.158 HD
ATOM     26  H   UNL     1      -3.983  -3.252  -0.013  1.00  0.00    +0.158 HD
ENDBRANCH  20  24
BRANCH  23  27
ATOM     27  N   UNL     1      -8.709  -1.940   0.309  1.00  0.00    -0.368 N 
ATOM     28  H   UNL     1      -9.598  -1.391   0.324  1.00  0.00    +0.159 HD
ATOM     29  H   UNL     1      -8.742  -2.967   0.495  1.00  0.00    +0.159 HD
ENDBRANCH  23  27
ENDBRANCH  13  14
ENDBRANCH  11  13
ENDBRANCH   6  11
ENDBRANCH   1   5
BRANCH   3  30
ATOM     30  C   UNL     1       4.872  -2.287   0.722  1.00  0.00    +0.192 C 
BRANCH  30  31
ATOM     31  C   UNL     1       5.898  -1.574  -0.184  1.00  0.00    +0.049 C 
BRANCH  31  32
ATOM     32  C   UNL     1       6.215  -0.137   0.258  1.00  0.00    +0.125 C 
BRANCH  32  33
ATOM     33  C   UNL     1       7.187   0.494  -0.687  1.00  0.00    +0.303 C 
ATOM     34  O   UNL     1       8.422   0.470  -0.433  1.00  0.00    -0.252 OA
BRANCH  33  35
ATOM     35  O   UNL     1       6.730   1.066  -1.871  1.00  0.00    -0.481 OA
ATOM     36  H   UNL     1       7.378   1.479  -2.531  1.00  0.00    +0.296 HD
ENDBRANCH  33  35
ENDBRANCH  32  33
ENDBRANCH  31  32
ENDBRANCH  30  31
BRANCH  30  37
ATOM     37  C   UNL     1       5.454  -2.578   2.083  1.00  0.00    +0.326 C 
ATOM     38  O   UNL     1       5.985  -3.699   2.308  1.00  0.00    -0.250 OA
BRANCH  37  39
ATOM     39  O   UNL     1       5.453  -1.605   3.078  1.00  0.00    -0.480 OA
ATOM     40  H   UNL     1       5.857  -1.792   3.988  1.00  0.00    +0.296 HD
ENDBRANCH  37  39
ENDBRANCH  30  37
ENDBRANCH   3  30
TORSDOF 13
