REMARK SMILES CCC(C)[C@H](NC(=O)[C@H](C)NC(=O)[C@H](CC(C)C)NC(=O)[C@H](C)NC)C(=O)N[C@H](C(=O)N1CCC[C@H]1[C@@H](OC)[C@@H](C)C(=O)N[C@H](CO)c1ccccc1)[C@@H](C)CC
REMARK SMILES IDX 26 1 27 2 28 3 5 5 3 6 4 7 2 8 1 9 6 10 7 11 8 12 9 14 10 15
REMARK SMILES IDX 11 16 12 17 13 18 14 20 15 21 16 22 17 23 18 24 19 25 20 26
REMARK SMILES IDX 21 27 22 29 23 30 24 31 25 32 29 34 54 35 55 36 56 37 57 38
REMARK SMILES IDX 30 39 31 40 32 41 33 42 36 43 34 44 35 45 37 46 38 47 39 48
REMARK SMILES IDX 40 49 41 50 42 51 43 52 44 53 45 55 46 56 47 57 48 59 49 60
REMARK SMILES IDX 53 61 50 62 52 63 51 64
REMARK H PARENT 28 4 6 13 11 19 19 28 24 33 44 54 47 58
ROOT
ATOM      1  C   UNL     1      -0.537  -1.299   1.744  1.00  0.00    +0.243 C 
ATOM      2  O   UNL     1       0.001  -2.325   2.245  1.00  0.00    -0.273 OA
ATOM      3  N   UNL     1       0.103  -0.612   0.656  1.00  0.00    -0.342 N 
ATOM      4  H   UNL     1      -0.253   0.332   0.386  1.00  0.00    +0.164 HD
ENDROOT
BRANCH   1   5
ATOM      5  C   UNL     1      -1.801  -0.726   2.357  1.00  0.00    +0.174 C 
BRANCH   5   6
ATOM      6  C   UNL     1      -2.704  -1.783   3.072  1.00  0.00    +0.018 C 
ATOM      7  C   UNL     1      -3.617  -1.081   4.090  1.00  0.00    +0.010 C 
BRANCH   6   8
ATOM      8  C   UNL     1      -3.583  -2.641   2.122  1.00  0.00    +0.002 C 
ATOM      9  C   UNL     1      -2.778  -3.508   1.155  1.00  0.00    +0.004 C 
ENDBRANCH   6   8
ENDBRANCH   5   6
BRANCH   5  10
ATOM     10  N   UNL     1      -2.565   0.005   1.338  1.00  0.00    -0.342 N 
ATOM     11  C   UNL     1      -2.757   1.426   1.378  1.00  0.00    +0.242 C 
ATOM     12  O   UNL     1      -2.756   2.033   2.485  1.00  0.00    -0.273 OA
ATOM     13  H   UNL     1      -2.794  -0.494   0.451  1.00  0.00    +0.164 HD
BRANCH  11  14
ATOM     14  C   UNL     1      -2.969   2.181   0.088  1.00  0.00    +0.168 C 
ATOM     15  C   UNL     1      -2.777   3.694   0.254  1.00  0.00    +0.041 C 
BRANCH  14  16
ATOM     16  N   UNL     1      -4.309   1.901  -0.432  1.00  0.00    -0.343 N 
ATOM     17  C   UNL     1      -4.569   0.855  -1.386  1.00  0.00    +0.243 C 
ATOM     18  O   UNL     1      -3.612   0.289  -1.984  1.00  0.00    -0.273 OA
ATOM     19  H   UNL     1      -5.117   2.423  -0.023  1.00  0.00    +0.164 HD
BRANCH  17  20
ATOM     20  C   UNL     1      -5.982   0.467  -1.739  1.00  0.00    +0.171 C 
BRANCH  20  21
ATOM     21  C   UNL     1      -6.577   1.472  -2.752  1.00  0.00    +0.038 C 
BRANCH  21  22
ATOM     22  C   UNL     1      -7.742   0.890  -3.588  1.00  0.00    -0.015 C 
ATOM     23  C   UNL     1      -8.957   0.517  -2.724  1.00  0.00    +0.007 C 
ATOM     24  C   UNL     1      -8.165   1.891  -4.673  1.00  0.00    +0.007 C 
ENDBRANCH  21  22
ENDBRANCH  20  21
BRANCH  20  25
ATOM     25  N   UNL     1      -6.794   0.406  -0.518  1.00  0.00    -0.343 N 
ATOM     26  C   UNL     1      -6.888  -0.781   0.287  1.00  0.00    +0.237 C 
ATOM     27  O   UNL     1      -6.460  -1.877  -0.166  1.00  0.00    -0.273 OA
ATOM     28  H   UNL     1      -7.177   1.300  -0.138  1.00  0.00    +0.164 HD
BRANCH  26  29
ATOM     29  C   UNL     1      -7.404  -0.718   1.710  1.00  0.00    +0.140 C 
ATOM     30  C   UNL     1      -8.022  -2.055   2.172  1.00  0.00    +0.035 C 
BRANCH  29  31
ATOM     31  N   UNL     1      -8.322   0.424   1.917  1.00  0.00    -0.309 NA
ATOM     32  C   UNL     1      -9.630   0.260   1.267  1.00  0.00    +0.102 C 
ATOM     33  H   UNL     1      -8.483   0.547   2.944  1.00  0.00    +0.123 HD
ENDBRANCH  29  31
ENDBRANCH  26  29
ENDBRANCH  20  25
ENDBRANCH  17  20
ENDBRANCH  14  16
ENDBRANCH  11  14
ENDBRANCH   5  10
ENDBRANCH   1   5
BRANCH   3  34
ATOM     34  C   UNL     1       1.292  -1.106  -0.047  1.00  0.00    +0.174 C 
BRANCH  34  35
ATOM     35  C   UNL     1       1.035  -1.065  -1.582  1.00  0.00    +0.018 C 
ATOM     36  C   UNL     1       2.254  -1.522  -2.401  1.00  0.00    +0.010 C 
BRANCH  35  37
ATOM     37  C   UNL     1      -0.242  -1.841  -2.000  1.00  0.00    +0.002 C 
ATOM     38  C   UNL     1      -0.195  -3.345  -1.711  1.00  0.00    +0.004 C 
ENDBRANCH  35  37
ENDBRANCH  34  35
BRANCH  34  39
ATOM     39  C   UNL     1       2.462  -0.235   0.348  1.00  0.00    +0.245 C 
ATOM     40  O   UNL     1       2.348   1.017   0.239  1.00  0.00    -0.272 OA
BRANCH  39  41
ATOM     41  N   UNL     1       3.682  -0.800   0.868  1.00  0.00    -0.335 N 
ATOM     42  C   UNL     1       4.353  -1.955   0.298  1.00  0.00    +0.120 C 
ATOM     43  C   UNL     1       4.276  -0.395   2.143  1.00  0.00    +0.115 C 
ATOM     44  C   UNL     1       5.207  -2.527   1.421  1.00  0.00    +0.024 C 
ATOM     45  C   UNL     1       5.440  -1.370   2.384  1.00  0.00    +0.030 C 
BRANCH  43  46
ATOM     46  C   UNL     1       4.682   1.114   2.195  1.00  0.00    +0.152 C 
BRANCH  46  47
ATOM     47  O   UNL     1       5.471   1.370   3.351  1.00  0.00    -0.378 OA
ATOM     48  C   UNL     1       4.667   1.770   4.438  1.00  0.00    +0.195 C 
ENDBRANCH  46  47
BRANCH  46  49
ATOM     49  C   UNL     1       5.408   1.654   0.920  1.00  0.00    +0.106 C 
ATOM     50  C   UNL     1       5.302   3.182   0.853  1.00  0.00    +0.021 C 
BRANCH  49  51
ATOM     51  C   UNL     1       6.865   1.272   0.782  1.00  0.00    +0.226 C 
ATOM     52  O   UNL     1       7.619   1.239   1.796  1.00  0.00    -0.275 OA
ATOM     53  N   UNL     1       7.422   1.088  -0.530  1.00  0.00    -0.347 N 
ATOM     54  H   UNL     1       6.752   1.021  -1.328  1.00  0.00    +0.164 HD
BRANCH  53  55
ATOM     55  C   UNL     1       8.856   1.260  -0.809  1.00  0.00    +0.138 C 
BRANCH  55  56
ATOM     56  C   UNL     1       9.228   2.753  -0.853  1.00  0.00    +0.185 C 
BRANCH  56  57
ATOM     57  O   UNL     1       9.185   3.309   0.433  1.00  0.00    -0.394 OA
ATOM     58  H   UNL     1       8.318   3.781   0.522  1.00  0.00    +0.210 HD
ENDBRANCH  56  57
ENDBRANCH  55  56
BRANCH  55  59
ATOM     59  C   UNL     1       9.233   0.595  -2.123  1.00  0.00    -0.023 A 
ATOM     60  C   UNL     1       8.584   0.942  -3.326  1.00  0.00    +0.006 A 
ATOM     61  C   UNL     1      10.298  -0.324  -2.168  1.00  0.00    +0.006 A 
ATOM     62  C   UNL     1       8.978   0.364  -4.536  1.00  0.00    +0.000 A 
ATOM     63  C   UNL     1      10.692  -0.894  -3.384  1.00  0.00    +0.000 A 
ATOM     64  C   UNL     1      10.031  -0.552  -4.565  1.00  0.00    +0.000 A 
ENDBRANCH  55  59
ENDBRANCH  53  55
ENDBRANCH  49  51
ENDBRANCH  46  49
ENDBRANCH  43  46
ENDBRANCH  39  41
ENDBRANCH  34  39
ENDBRANCH   3  34
TORSDOF 25
