REMARK SMILES NC(=O)c1cccc2cn(-c3ccc([C@@H]4CCCNC4)cc3)nc12
REMARK SMILES IDX 10 1 9 2 8 3 7 4 6 5 5 6 4 7 24 8 23 9 11 10 14 11 13 12
REMARK SMILES IDX 21 13 12 14 22 15 15 16 17 17 16 18 18 19 19 20 20 21 2 23
REMARK SMILES IDX 3 24 1 25
REMARK H PARENT 19 22 1 26 1 27
ROOT
ATOM      1  N   UNL     1       1.960  -0.334  -0.236  1.00  0.00    -0.240 N 
ATOM      2  C   UNL     1       2.552  -1.546  -0.518  1.00  0.00    +0.123 A 
ATOM      3  C   UNL     1       3.897  -1.311  -0.523  1.00  0.00    +0.021 A 
ATOM      4  C   UNL     1       4.873  -2.269  -0.767  1.00  0.00    +0.012 A 
ATOM      5  C   UNL     1       6.165  -1.711  -0.701  1.00  0.00    +0.002 A 
ATOM      6  C   UNL     1       6.419  -0.333  -0.418  1.00  0.00    +0.016 A 
ATOM      7  C   UNL     1       5.394   0.618  -0.174  1.00  0.00    +0.067 A 
ATOM      8  C   UNL     1       4.087   0.086  -0.234  1.00  0.00    +0.105 A 
ATOM      9  N   UNL     1       2.880   0.660  -0.063  1.00  0.00    -0.167 NA
ENDROOT
BRANCH   1  10
ATOM     10  C   UNL     1       0.567  -0.054  -0.119  1.00  0.00    +0.065 A 
ATOM     11  C   UNL     1      -2.194   0.545   0.123  1.00  0.00    -0.043 A 
ATOM     12  C   UNL     1      -1.760  -0.753  -0.170  1.00  0.00    +0.006 A 
ATOM     13  C   UNL     1      -1.218   1.541   0.291  1.00  0.00    +0.006 A 
ATOM     14  C   UNL     1      -0.396  -1.055  -0.290  1.00  0.00    +0.028 A 
ATOM     15  C   UNL     1       0.145   1.248   0.173  1.00  0.00    +0.028 A 
BRANCH  11  16
ATOM     16  C   UNL     1      -3.664   0.925   0.260  1.00  0.00    +0.033 C 
ATOM     17  C   UNL     1      -5.028  -1.135   0.980  1.00  0.00    +0.016 C 
ATOM     18  C   UNL     1      -4.396   0.191   1.400  1.00  0.00    +0.011 C 
ATOM     19  C   UNL     1      -5.801  -1.008  -0.329  1.00  0.00    +0.081 C 
ATOM     20  N   UNL     1      -4.974  -0.476  -1.410  1.00  0.00    -0.316 NA
ATOM     21  C   UNL     1      -4.448   0.851  -1.069  1.00  0.00    +0.089 C 
ATOM     22  H   UNL     1      -4.198  -1.108  -1.596  1.00  0.00    +0.122 HD
ENDBRANCH  11  16
ENDBRANCH   1  10
BRANCH   7  23
ATOM     23  C   UNL     1       5.711   2.027   0.113  1.00  0.00    +0.250 C 
ATOM     24  O   UNL     1       6.869   2.423   0.151  1.00  0.00    -0.269 OA
ATOM     25  N   UNL     1       4.664   2.872   0.335  1.00  0.00    -0.366 N 
ATOM     26  H   UNL     1       3.703   2.538   0.301  1.00  0.00    +0.159 HD
ATOM     27  H   UNL     1       4.850   3.844   0.532  1.00  0.00    +0.159 HD
ENDBRANCH   7  23
TORSDOF 3
