REMARK SMILES NC(=O)c1cccc2cn(-c3ccc([C@@H]4CCCNC4)cc3)nc12
REMARK SMILES IDX 10 1 9 2 8 3 7 4 6 5 5 6 4 7 24 8 23 9 11 10 14 11 13 12
REMARK SMILES IDX 21 13 12 14 22 15 15 16 17 17 16 18 18 19 19 20 20 21 2 23
REMARK SMILES IDX 3 24 1 25
REMARK H PARENT 19 22 1 26 1 27
ROOT
ATOM      1  N   UNL     1       2.095  -0.802   0.081  1.00  0.00    -0.240 N 
ATOM      2  C   UNL     1       2.819  -1.878   0.550  1.00  0.00    +0.123 A 
ATOM      3  C   UNL     1       4.130  -1.571   0.324  1.00  0.00    +0.021 A 
ATOM      4  C   UNL     1       5.208  -2.387   0.648  1.00  0.00    +0.012 A 
ATOM      5  C   UNL     1       6.430  -1.786   0.288  1.00  0.00    +0.002 A 
ATOM      6  C   UNL     1       6.530  -0.501  -0.330  1.00  0.00    +0.016 A 
ATOM      7  C   UNL     1       5.405   0.305  -0.646  1.00  0.00    +0.067 A 
ATOM      8  C   UNL     1       4.165  -0.273  -0.296  1.00  0.00    +0.105 A 
ATOM      9  N   UNL     1       2.900   0.174  -0.432  1.00  0.00    -0.167 NA
ENDROOT
BRANCH   1  10
ATOM     10  C   UNL     1       0.679  -0.639   0.088  1.00  0.00    +0.065 A 
ATOM     11  C   UNL     1      -2.123  -0.269   0.083  1.00  0.00    -0.043 A 
ATOM     12  C   UNL     1      -1.270   0.715  -0.437  1.00  0.00    +0.006 A 
ATOM     13  C   UNL     1      -1.553  -1.440   0.602  1.00  0.00    +0.006 A 
ATOM     14  C   UNL     1       0.116   0.534  -0.435  1.00  0.00    +0.028 A 
ATOM     15  C   UNL     1      -0.166  -1.627   0.608  1.00  0.00    +0.028 A 
BRANCH  11  16
ATOM     16  C   UNL     1      -3.632  -0.093   0.091  1.00  0.00    +0.033 C 
ATOM     17  C   UNL     1      -5.487   0.757  -1.442  1.00  0.00    +0.016 C 
ATOM     18  C   UNL     1      -4.217  -0.089  -1.335  1.00  0.00    +0.011 C 
ATOM     19  C   UNL     1      -6.284   0.745  -0.142  1.00  0.00    +0.081 C 
ATOM     20  N   UNL     1      -5.538   1.259   1.007  1.00  0.00    -0.316 NA
ATOM     21  C   UNL     1      -4.079   1.159   0.871  1.00  0.00    +0.089 C 
ATOM     22  H   UNL     1      -5.789   2.232   1.184  1.00  0.00    +0.122 HD
ENDBRANCH  11  16
ENDBRANCH   1  10
BRANCH   7  23
ATOM     23  C   UNL     1       5.563   1.623  -1.283  1.00  0.00    +0.250 C 
ATOM     24  O   UNL     1       6.671   2.066  -1.561  1.00  0.00    -0.269 OA
ATOM     25  N   UNL     1       4.428   2.330  -1.550  1.00  0.00    -0.366 N 
ATOM     26  H   UNL     1       4.505   3.237  -1.987  1.00  0.00    +0.159 HD
ATOM     27  H   UNL     1       3.511   1.957  -1.317  1.00  0.00    +0.159 HD
ENDBRANCH   7  23
TORSDOF 3
