REMARK SMILES NC(=O)c1cccc([C@@H]2CCCN(Cc3ccc4ncccc4c3)C2)c1
REMARK SMILES IDX 4 1 5 2 6 3 7 4 8 5 26 6 2 7 1 8 3 9 9 12 10 13 25 14 11 15
REMARK SMILES IDX 13 16 12 17 14 18 15 19 16 20 24 21 17 22 23 23 18 24 22 25
REMARK SMILES IDX 19 26 21 27 20 28
REMARK H PARENT 1 10 1 11
ROOT
ATOM      1  C   UNL     1      -5.490   0.247   0.029  1.00  0.00    +0.039 A 
ATOM      2  C   UNL     1      -5.917  -0.359  -1.165  1.00  0.00    +0.014 A 
ATOM      3  C   UNL     1      -4.991  -0.731  -2.141  1.00  0.00    +0.001 A 
ATOM      4  C   UNL     1      -3.630  -0.495  -1.945  1.00  0.00    +0.004 A 
ATOM      5  C   UNL     1      -3.177   0.128  -0.768  1.00  0.00    -0.043 A 
ATOM      6  C   UNL     1      -4.116   0.494   0.214  1.00  0.00    +0.017 A 
ENDROOT
BRANCH   1   7
ATOM      7  C   UNL     1      -6.486   0.636   1.057  1.00  0.00    +0.248 C 
ATOM      8  N   UNL     1      -6.121   0.787   2.432  1.00  0.00    -0.366 N 
ATOM      9  O   UNL     1      -7.687   0.823   0.722  1.00  0.00    -0.270 OA
ATOM     10  H   UNL     1      -5.188   0.489   2.789  1.00  0.00    +0.159 HD
ATOM     11  H   UNL     1      -6.829   1.120   3.124  1.00  0.00    +0.159 HD
ENDBRANCH   1   7
BRANCH   5  12
ATOM     12  C   UNL     1      -1.697   0.390  -0.543  1.00  0.00    +0.033 C 
ATOM     13  C   UNL     1      -1.076   1.260  -1.666  1.00  0.00    +0.011 C 
ATOM     14  C   UNL     1      -0.933  -0.939  -0.338  1.00  0.00    +0.093 C 
ATOM     15  C   UNL     1      -0.100   0.470  -2.541  1.00  0.00    +0.016 C 
ATOM     16  N   UNL     1       0.531  -0.747  -0.395  1.00  0.00    -0.298 NA
ATOM     17  C   UNL     1       1.004  -0.191  -1.693  1.00  0.00    +0.085 C 
BRANCH  16  18
ATOM     18  C   UNL     1       1.042   0.007   0.770  1.00  0.00    +0.120 C 
BRANCH  18  19
ATOM     19  C   UNL     1       2.488  -0.333   1.016  1.00  0.00    -0.033 A 
ATOM     20  C   UNL     1       2.840  -1.627   1.434  1.00  0.00    +0.007 A 
ATOM     21  C   UNL     1       3.494   0.627   0.814  1.00  0.00    +0.015 A 
ATOM     22  C   UNL     1       4.179  -1.962   1.652  1.00  0.00    +0.029 A 
ATOM     23  C   UNL     1       4.839   0.295   1.031  1.00  0.00    +0.000 A 
ATOM     24  C   UNL     1       5.182  -1.008   1.453  1.00  0.00    +0.070 A 
ATOM     25  C   UNL     1       5.861   1.234   0.836  1.00  0.00    +0.012 A 
ATOM     26  N   UNL     1       6.486  -1.333   1.664  1.00  0.00    -0.256 NA
ATOM     27  C   UNL     1       7.190   0.870   1.061  1.00  0.00    +0.021 A 
ATOM     28  C   UNL     1       7.486  -0.430   1.478  1.00  0.00    +0.112 A 
ENDBRANCH  18  19
ENDBRANCH  16  18
ENDBRANCH   5  12
TORSDOF 4
