REMARK SMILES NC(=O)c1cccc2cn(-c3ccc([C@@H]4CCCNC4)cc3)nc12
REMARK SMILES IDX 10 1 9 2 8 3 7 4 6 5 5 6 4 7 24 8 23 9 11 10 14 11 13 12
REMARK SMILES IDX 21 13 12 14 22 15 15 16 17 17 16 18 18 19 19 20 20 21 2 23
REMARK SMILES IDX 3 24 1 25
REMARK H PARENT 19 22 1 26 1 27
ROOT
ATOM      1  N   UNL     1       2.020   0.488  -0.404  1.00  0.00    -0.240 N 
ATOM      2  C   UNL     1       2.519   1.421  -1.288  1.00  0.00    +0.123 A 
ATOM      3  C   UNL     1       3.877   1.302  -1.228  1.00  0.00    +0.021 A 
ATOM      4  C   UNL     1       4.778   2.061  -1.965  1.00  0.00    +0.012 A 
ATOM      5  C   UNL     1       6.108   1.698  -1.677  1.00  0.00    +0.002 A 
ATOM      6  C   UNL     1       6.467   0.678  -0.743  1.00  0.00    +0.016 A 
ATOM      7  C   UNL     1       5.518  -0.078  -0.008  1.00  0.00    +0.067 A 
ATOM      8  C   UNL     1       4.174   0.265  -0.276  1.00  0.00    +0.105 A 
ATOM      9  N   UNL     1       3.014  -0.217   0.213  1.00  0.00    -0.167 NA
ENDROOT
BRANCH   1  10
ATOM     10  C   UNL     1       0.653   0.219  -0.104  1.00  0.00    +0.065 A 
ATOM     11  C   UNL     1      -2.043  -0.344   0.526  1.00  0.00    -0.043 A 
ATOM     12  C   UNL     1      -1.716   0.644  -0.412  1.00  0.00    +0.006 A 
ATOM     13  C   UNL     1      -1.003  -1.056   1.137  1.00  0.00    +0.006 A 
ATOM     14  C   UNL     1      -0.382   0.929  -0.726  1.00  0.00    +0.028 A 
ATOM     15  C   UNL     1       0.332  -0.777   0.829  1.00  0.00    +0.028 A 
BRANCH  11  16
ATOM     16  C   UNL     1      -3.489  -0.670   0.866  1.00  0.00    +0.033 C 
ATOM     17  C   UNL     1      -5.653  -1.332  -0.241  1.00  0.00    +0.016 C 
ATOM     18  C   UNL     1      -4.139  -1.505  -0.256  1.00  0.00    +0.011 C 
ATOM     19  C   UNL     1      -6.045   0.134  -0.448  1.00  0.00    +0.081 C 
ATOM     20  N   UNL     1      -5.092   1.103   0.100  1.00  0.00    -0.316 NA
ATOM     21  C   UNL     1      -4.343   0.570   1.238  1.00  0.00    +0.089 C 
ATOM     22  H   UNL     1      -5.585   1.954   0.369  1.00  0.00    +0.122 HD
ENDBRANCH  11  16
ENDBRANCH   1  10
BRANCH   7  23
ATOM     23  C   UNL     1       5.940  -1.119   0.944  1.00  0.00    +0.250 C 
ATOM     24  O   UNL     1       7.125  -1.367   1.130  1.00  0.00    -0.269 OA
ATOM     25  N   UNL     1       4.960  -1.797   1.607  1.00  0.00    -0.366 N 
ATOM     26  H   UNL     1       5.219  -2.518   2.265  1.00  0.00    +0.159 HD
ATOM     27  H   UNL     1       3.978  -1.588   1.447  1.00  0.00    +0.159 HD
ENDBRANCH   7  23
TORSDOF 3
