REMARK SMILES NC(=O)c1cccc2cn(-c3ccc([C@@H]4CCCNC4)cc3)nc12
REMARK SMILES IDX 10 1 9 2 8 3 7 4 6 5 5 6 4 7 24 8 23 9 11 10 14 11 13 12
REMARK SMILES IDX 21 13 12 14 22 15 15 16 17 17 16 18 18 19 19 20 20 21 2 23
REMARK SMILES IDX 3 24 1 25
REMARK H PARENT 19 22 1 26 1 27
ROOT
ATOM      1  N   UNL     1      -2.113  -0.479   0.290  1.00  0.00    -0.240 N 
ATOM      2  C   UNL     1      -2.742  -1.533   0.917  1.00  0.00    +0.123 A 
ATOM      3  C   UNL     1      -4.080  -1.323   0.743  1.00  0.00    +0.021 A 
ATOM      4  C   UNL     1      -5.086  -2.155   1.222  1.00  0.00    +0.012 A 
ATOM      5  C   UNL     1      -6.361  -1.665   0.877  1.00  0.00    +0.002 A 
ATOM      6  C   UNL     1      -6.573  -0.464   0.131  1.00  0.00    +0.016 A 
ATOM      7  C   UNL     1      -5.520   0.360  -0.342  1.00  0.00    +0.067 A 
ATOM      8  C   UNL     1      -4.229  -0.107  -0.010  1.00  0.00    +0.105 A 
ATOM      9  N   UNL     1      -3.003   0.389  -0.274  1.00  0.00    -0.167 NA
ENDROOT
BRANCH   1  10
ATOM     10  C   UNL     1      -0.711  -0.240   0.189  1.00  0.00    +0.065 A 
ATOM     11  C   UNL     1       2.059   0.277  -0.036  1.00  0.00    -0.043 A 
ATOM     12  C   UNL     1       1.120   1.149  -0.603  1.00  0.00    +0.006 A 
ATOM     13  C   UNL     1       1.592  -0.858   0.642  1.00  0.00    +0.006 A 
ATOM     14  C   UNL     1      -0.251   0.896  -0.493  1.00  0.00    +0.028 A 
ATOM     15  C   UNL     1       0.221  -1.117   0.757  1.00  0.00    +0.028 A 
BRANCH  11  16
ATOM     16  C   UNL     1       3.543   0.575  -0.171  1.00  0.00    +0.033 C 
ATOM     17  C   UNL     1       5.767  -0.207  -1.060  1.00  0.00    +0.016 C 
ATOM     18  C   UNL     1       4.269  -0.502  -0.993  1.00  0.00    +0.011 C 
ATOM     19  C   UNL     1       6.355  -0.003   0.335  1.00  0.00    +0.081 C 
ATOM     20  N   UNL     1       5.664   1.058   1.070  1.00  0.00    -0.316 NA
ATOM     21  C   UNL     1       4.230   0.763   1.199  1.00  0.00    +0.089 C 
ATOM     22  H   UNL     1       5.776   1.939   0.567  1.00  0.00    +0.122 HD
ENDBRANCH  11  16
ENDBRANCH   1  10
BRANCH   7  23
ATOM     23  C   UNL     1      -5.793   1.588  -1.107  1.00  0.00    +0.250 C 
ATOM     24  O   UNL     1      -6.940   1.936  -1.360  1.00  0.00    -0.269 OA
ATOM     25  N   UNL     1      -4.720   2.321  -1.521  1.00  0.00    -0.366 N 
ATOM     26  H   UNL     1      -3.770   2.027  -1.306  1.00  0.00    +0.159 HD
ATOM     27  H   UNL     1      -4.877   3.168  -2.046  1.00  0.00    +0.159 HD
ENDBRANCH   7  23
TORSDOF 3
