REMARK SMILES O=C(c1cc(Cc2n[nH]c(=O)c3ccccc23)ccc1F)N1CCN(C(=O)C2CC2)CC1
REMARK SMILES IDX 3 1 20 2 19 3 18 4 5 5 4 6 21 7 2 8 26 9 27 10 25 11 24 12
REMARK SMILES IDX 31 13 23 14 32 15 22 16 1 17 28 18 29 19 30 20 6 21 7 22
REMARK SMILES IDX 8 23 17 24 9 25 16 26 12 27 10 28 15 29 13 30 11 31 14 32
REMARK H PARENT 9 33
ROOT
ATOM      1  C   UNL     1       0.386   2.009  -2.624  1.00  0.00    +0.076 A 
ATOM      2  C   UNL     1       1.057   1.803  -3.823  1.00  0.00    +0.135 A 
ATOM      3  C   UNL     1       2.448   1.739  -3.842  1.00  0.00    +0.040 A 
ATOM      4  C   UNL     1       3.173   1.864  -2.652  1.00  0.00    +0.007 A 
ATOM      5  C   UNL     1       2.508   2.061  -1.432  1.00  0.00    -0.041 A 
ATOM      6  C   UNL     1       1.109   2.181  -1.437  1.00  0.00    +0.021 A 
ATOM      7  F   UNL     1       0.389   1.626  -4.971  1.00  0.00    -0.206 F 
ENDROOT
BRANCH   1   8
ATOM      8  C   UNL     1      -1.086   2.070  -2.593  1.00  0.00    +0.256 C 
ATOM      9  C   UNL     1      -3.709  -0.603   1.592  1.00  0.00    +0.225 C 
ATOM     10  O   UNL     1      -4.820  -0.238   1.959  1.00  0.00    -0.275 OA
ATOM     11  N   UNL     1      -3.055  -0.076   0.480  1.00  0.00    -0.339 N 
ATOM     12  C   UNL     1      -3.649   1.118  -0.136  1.00  0.00    +0.141 C 
ATOM     13  C   UNL     1      -1.616  -0.256   0.257  1.00  0.00    +0.141 C 
ATOM     14  C   UNL     1      -3.211   1.334  -1.592  1.00  0.00    +0.141 C 
ATOM     15  C   UNL     1      -1.224  -0.059  -1.211  1.00  0.00    +0.141 C 
ATOM     16  N   UNL     1      -1.760   1.203  -1.736  1.00  0.00    -0.335 N 
ATOM     17  O   UNL     1      -1.642   2.930  -3.268  1.00  0.00    -0.269 OA
BRANCH   9  18
ATOM     18  C   UNL     1      -2.999  -1.661   2.364  1.00  0.00    +0.079 C 
ATOM     19  C   UNL     1      -3.787  -2.794   2.987  1.00  0.00    +0.014 C 
ATOM     20  C   UNL     1      -2.892  -3.067   1.818  1.00  0.00    +0.014 C 
ENDBRANCH   9  18
ENDBRANCH   1   8
BRANCH   5  21
ATOM     21  C   UNL     1       3.273   2.141  -0.128  1.00  0.00    +0.094 C 
BRANCH  21  22
ATOM     22  C   UNL     1       2.682   1.214   0.932  1.00  0.00    +0.073 C 
ATOM     23  N   UNL     1       1.933   1.762   1.844  1.00  0.00    -0.177 NA
ATOM     24  C   UNL     1       2.915  -0.251   0.857  1.00  0.00    +0.011 A 
ATOM     25  N   UNL     1       1.321   0.957   2.753  1.00  0.00    -0.243 N 
ATOM     26  C   UNL     1       3.757  -0.855  -0.085  1.00  0.00    +0.011 A 
ATOM     27  C   UNL     1       2.230  -1.051   1.770  1.00  0.00    +0.050 A 
ATOM     28  C   UNL     1       1.352  -0.415   2.765  1.00  0.00    +0.272 C 
ATOM     29  C   UNL     1       3.898  -2.246  -0.109  1.00  0.00    +0.001 A 
ATOM     30  C   UNL     1       2.369  -2.444   1.747  1.00  0.00    +0.014 A 
ATOM     31  O   UNL     1       0.680  -1.082   3.543  1.00  0.00    -0.267 OA
ATOM     32  C   UNL     1       3.205  -3.039   0.804  1.00  0.00    +0.001 A 
ATOM     33  H   UNL     1       0.725   1.417   3.436  1.00  0.00    +0.194 HD
ENDBRANCH  21  22
ENDBRANCH   5  21
TORSDOF 4
