REMARK SMILES O=C(c1cc(Cc2n[nH]c(=O)c3ccccc23)ccc1F)N1CCN(C(=O)C2CC2)CC1
REMARK SMILES IDX 3 1 20 2 19 3 18 4 5 5 4 6 21 7 2 8 26 9 27 10 25 11 24 12
REMARK SMILES IDX 31 13 23 14 32 15 22 16 1 17 28 18 29 19 30 20 6 21 7 22
REMARK SMILES IDX 8 23 17 24 9 25 16 26 12 27 10 28 15 29 13 30 11 31 14 32
REMARK H PARENT 9 33
ROOT
ATOM      1  C   UNL     1      -0.296  -0.378   0.056  1.00  0.00    +0.076 A 
ATOM      2  C   UNL     1      -0.158  -1.623   0.661  1.00  0.00    +0.135 A 
ATOM      3  C   UNL     1      -1.246  -2.224   1.287  1.00  0.00    +0.040 A 
ATOM      4  C   UNL     1      -2.489  -1.587   1.284  1.00  0.00    +0.007 A 
ATOM      5  C   UNL     1      -2.659  -0.352   0.638  1.00  0.00    -0.041 A 
ATOM      6  C   UNL     1      -1.547   0.254   0.033  1.00  0.00    +0.021 A 
ATOM      7  F   UNL     1       1.015  -2.271   0.650  1.00  0.00    -0.206 F 
ENDROOT
BRANCH   1   8
ATOM      8  C   UNL     1       0.829   0.268  -0.642  1.00  0.00    +0.256 C 
ATOM      9  C   UNL     1       5.682   1.456   2.098  1.00  0.00    +0.225 C 
ATOM     10  O   UNL     1       5.696   1.797   3.276  1.00  0.00    -0.275 OA
ATOM     11  N   UNL     1       4.518   1.252   1.375  1.00  0.00    -0.339 N 
ATOM     12  C   UNL     1       4.483   0.849  -0.035  1.00  0.00    +0.141 C 
ATOM     13  C   UNL     1       3.229   1.399   2.053  1.00  0.00    +0.141 C 
ATOM     14  C   UNL     1       3.126   1.112  -0.699  1.00  0.00    +0.141 C 
ATOM     15  C   UNL     1       2.168   0.435   1.506  1.00  0.00    +0.141 C 
ATOM     16  N   UNL     1       2.007   0.532   0.047  1.00  0.00    -0.335 N 
ATOM     17  O   UNL     1       0.654   0.582  -1.818  1.00  0.00    -0.269 OA
BRANCH   9  18
ATOM     18  C   UNL     1       6.969   1.228   1.382  1.00  0.00    +0.079 C 
ATOM     19  C   UNL     1       7.591   2.343   0.571  1.00  0.00    +0.014 C 
ATOM     20  C   UNL     1       8.235   1.912   1.853  1.00  0.00    +0.014 C 
ENDBRANCH   9  18
ENDBRANCH   1   8
BRANCH   5  21
ATOM     21  C   UNL     1      -4.006   0.336   0.616  1.00  0.00    +0.094 C 
BRANCH  21  22
ATOM     22  C   UNL     1      -5.139  -0.566   0.143  1.00  0.00    +0.073 C 
ATOM     23  N   UNL     1      -5.922  -1.057   1.060  1.00  0.00    -0.177 NA
ATOM     24  C   UNL     1      -5.306  -0.859  -1.304  1.00  0.00    +0.011 A 
ATOM     25  N   UNL     1      -6.938  -1.873   0.673  1.00  0.00    -0.243 N 
ATOM     26  C   UNL     1      -4.473  -0.339  -2.302  1.00  0.00    +0.011 A 
ATOM     27  C   UNL     1      -6.355  -1.703  -1.664  1.00  0.00    +0.050 A 
ATOM     28  C   UNL     1      -7.232  -2.248  -0.615  1.00  0.00    +0.272 C 
ATOM     29  C   UNL     1      -4.695  -0.669  -3.643  1.00  0.00    +0.001 A 
ATOM     30  C   UNL     1      -6.580  -2.033  -3.006  1.00  0.00    +0.014 A 
ATOM     31  O   UNL     1      -8.168  -2.992  -0.884  1.00  0.00    -0.267 OA
ATOM     32  C   UNL     1      -5.747  -1.514  -3.995  1.00  0.00    +0.001 A 
ATOM     33  H   UNL     1      -7.535  -2.238   1.409  1.00  0.00    +0.194 HD
ENDBRANCH  21  22
ENDBRANCH   5  21
TORSDOF 4
