REMARK SMILES O=C(c1cc(Cc2n[nH]c(=O)c3ccccc23)ccc1F)N1CCN(C(=O)C2CC2)CC1
REMARK SMILES IDX 3 1 20 2 19 3 18 4 5 5 4 6 21 7 2 8 26 9 27 10 25 11 24 12
REMARK SMILES IDX 31 13 23 14 32 15 22 16 1 17 28 18 29 19 30 20 6 21 7 22
REMARK SMILES IDX 8 23 17 24 9 25 16 26 12 27 10 28 15 29 13 30 11 31 14 32
REMARK H PARENT 9 33
ROOT
ATOM      1  C   UNL     1       0.585   0.816  -0.519  1.00  0.00    +0.076 A 
ATOM      2  C   UNL     1       0.553   1.901  -1.391  1.00  0.00    +0.135 A 
ATOM      3  C   UNL     1       1.480   2.930  -1.264  1.00  0.00    +0.040 A 
ATOM      4  C   UNL     1       2.461   2.863  -0.271  1.00  0.00    +0.007 A 
ATOM      5  C   UNL     1       2.535   1.756   0.591  1.00  0.00    -0.041 A 
ATOM      6  C   UNL     1       1.578   0.736   0.465  1.00  0.00    +0.021 A 
ATOM      7  F   UNL     1      -0.373   1.985  -2.356  1.00  0.00    -0.206 F 
ENDROOT
BRANCH   1   8
ATOM      8  C   UNL     1      -0.366  -0.299  -0.666  1.00  0.00    +0.256 C 
ATOM      9  C   UNL     1      -5.950   0.612  -0.614  1.00  0.00    +0.225 C 
ATOM     10  O   UNL     1      -6.431   1.703  -0.330  1.00  0.00    -0.275 OA
ATOM     11  N   UNL     1      -4.583   0.361  -0.656  1.00  0.00    -0.339 N 
ATOM     12  C   UNL     1      -3.681   1.506  -0.518  1.00  0.00    +0.141 C 
ATOM     13  C   UNL     1      -4.000  -0.813  -1.316  1.00  0.00    +0.141 C 
ATOM     14  C   UNL     1      -2.323   1.112   0.073  1.00  0.00    +0.141 C 
ATOM     15  C   UNL     1      -2.635  -1.196  -0.733  1.00  0.00    +0.141 C 
ATOM     16  N   UNL     1      -1.736  -0.047  -0.614  1.00  0.00    -0.335 N 
ATOM     17  O   UNL     1       0.109  -1.421  -0.831  1.00  0.00    -0.269 OA
BRANCH   9  18
ATOM     18  C   UNL     1      -6.863  -0.521  -0.933  1.00  0.00    +0.079 C 
ATOM     19  C   UNL     1      -7.068  -1.641   0.063  1.00  0.00    +0.014 C 
ATOM     20  C   UNL     1      -8.173  -0.663  -0.188  1.00  0.00    +0.014 C 
ENDBRANCH   9  18
ENDBRANCH   1   8
BRANCH   5  21
ATOM     21  C   UNL     1       3.598   1.712   1.667  1.00  0.00    +0.094 C 
BRANCH  21  22
ATOM     22  C   UNL     1       4.211   0.335   1.887  1.00  0.00    +0.073 C 
ATOM     23  N   UNL     1       3.835  -0.314   2.951  1.00  0.00    -0.177 NA
ATOM     24  C   UNL     1       5.184  -0.213   0.908  1.00  0.00    +0.011 A 
ATOM     25  N   UNL     1       4.360  -1.548   3.174  1.00  0.00    -0.243 N 
ATOM     26  C   UNL     1       5.597   0.473  -0.241  1.00  0.00    +0.011 A 
ATOM     27  C   UNL     1       5.701  -1.481   1.168  1.00  0.00    +0.050 A 
ATOM     28  C   UNL     1       5.269  -2.199   2.377  1.00  0.00    +0.272 C 
ATOM     29  C   UNL     1       6.517  -0.114  -1.115  1.00  0.00    +0.001 A 
ATOM     30  C   UNL     1       6.623  -2.070   0.293  1.00  0.00    +0.014 A 
ATOM     31  O   UNL     1       5.704  -3.312   2.652  1.00  0.00    -0.267 OA
ATOM     32  C   UNL     1       7.029  -1.383  -0.849  1.00  0.00    +0.001 A 
ATOM     33  H   UNL     1       4.047  -2.031   4.011  1.00  0.00    +0.194 HD
ENDBRANCH  21  22
ENDBRANCH   5  21
TORSDOF 4
