REMARK SMILES O=C(c1cc(Cc2n[nH]c(=O)c3ccccc23)ccc1F)N1CCN(C(=O)C2CC2)CC1
REMARK SMILES IDX 3 1 4 2 5 3 18 4 19 5 20 6 21 7 2 8 1 9 22 10 23 11 32 12
REMARK SMILES IDX 24 13 31 14 25 15 26 16 27 17 28 18 29 19 30 20 6 21 7 22
REMARK SMILES IDX 8 23 17 24 9 25 16 26 12 27 10 28 15 29 13 30 11 31 14 32
REMARK H PARENT 9 33
ROOT
ATOM      1  C   UNL     1      -0.333  -0.098   0.317  1.00  0.00    +0.076 A 
ATOM      2  C   UNL     1      -1.574  -0.526   0.817  1.00  0.00    +0.021 A 
ATOM      3  C   UNL     1      -2.340   0.313   1.645  1.00  0.00    -0.041 A 
ATOM      4  C   UNL     1      -1.843   1.581   1.983  1.00  0.00    +0.007 A 
ATOM      5  C   UNL     1      -0.620   2.018   1.473  1.00  0.00    +0.040 A 
ATOM      6  C   UNL     1       0.132   1.190   0.636  1.00  0.00    +0.135 A 
ATOM      7  F   UNL     1       1.291   1.660   0.109  1.00  0.00    -0.206 F 
ENDROOT
BRANCH   1   8
ATOM      8  C   UNL     1       0.448  -0.990  -0.565  1.00  0.00    +0.256 C 
ATOM      9  O   UNL     1      -0.150  -1.638  -1.467  1.00  0.00    -0.269 OA
ATOM     10  N   UNL     1       1.871  -1.142  -0.404  1.00  0.00    -0.335 N 
ATOM     11  C   UNL     1       2.698  -1.473  -1.569  1.00  0.00    +0.141 C 
ATOM     12  C   UNL     1       2.440  -1.221   0.951  1.00  0.00    +0.141 C 
ATOM     13  C   UNL     1       4.093  -0.858  -1.421  1.00  0.00    +0.141 C 
ATOM     14  C   UNL     1       3.862  -1.792   0.937  1.00  0.00    +0.141 C 
ATOM     15  N   UNL     1       4.671  -1.125  -0.093  1.00  0.00    -0.339 N 
ATOM     16  C   UNL     1       6.066  -0.849   0.152  1.00  0.00    +0.225 C 
ATOM     17  O   UNL     1       6.653  -1.382   1.134  1.00  0.00    -0.275 OA
BRANCH  16  18
ATOM     18  C   UNL     1       6.859   0.031  -0.775  1.00  0.00    +0.079 C 
ATOM     19  C   UNL     1       7.751   1.056  -0.089  1.00  0.00    +0.014 C 
ATOM     20  C   UNL     1       6.456   1.498  -0.747  1.00  0.00    +0.014 C 
ENDBRANCH  16  18
ENDBRANCH   1   8
BRANCH   3  21
ATOM     21  C   UNL     1      -3.663  -0.162   2.194  1.00  0.00    +0.094 C 
BRANCH  21  22
ATOM     22  C   UNL     1      -4.616  -0.538   1.085  1.00  0.00    +0.073 A 
ATOM     23  N   UNL     1      -4.803  -1.861   0.833  1.00  0.00    -0.177 NA
ATOM     24  C   UNL     1      -5.282   0.413   0.277  1.00  0.00    +0.011 A 
ATOM     25  N   UNL     1      -5.598  -2.299  -0.142  1.00  0.00    -0.243 N 
ATOM     26  C   UNL     1      -5.141   1.803   0.470  1.00  0.00    +0.011 A 
ATOM     27  C   UNL     1      -6.123  -0.054  -0.763  1.00  0.00    +0.050 A 
ATOM     28  C   UNL     1      -6.266  -1.439  -0.953  1.00  0.00    +0.272 A 
ATOM     29  C   UNL     1      -5.814   2.705  -0.357  1.00  0.00    +0.001 A 
ATOM     30  C   UNL     1      -6.794   0.870  -1.587  1.00  0.00    +0.014 A 
ATOM     31  O   UNL     1      -7.006  -1.895  -1.868  1.00  0.00    -0.267 OA
ATOM     32  C   UNL     1      -6.637   2.241  -1.382  1.00  0.00    +0.001 A 
ATOM     33  H   UNL     1      -5.701  -3.329  -0.282  1.00  0.00    +0.194 HD
ENDBRANCH  21  22
ENDBRANCH   3  21
TORSDOF 4
