REMARK SMILES O=C(c1cc(Cc2n[nH]c(=O)c3ccccc23)ccc1F)N1CCN(C(=O)C2CC2)CC1
REMARK SMILES IDX 3 1 20 2 19 3 18 4 5 5 4 6 21 7 2 8 26 9 27 10 25 11 24 12
REMARK SMILES IDX 31 13 23 14 32 15 22 16 1 17 28 18 29 19 30 20 6 21 7 22
REMARK SMILES IDX 8 23 17 24 9 25 16 26 12 27 10 28 15 29 13 30 11 31 14 32
REMARK H PARENT 9 33
ROOT
ATOM      1  C   UNL     1       0.301  -0.083   0.529  1.00  0.00    +0.076 A 
ATOM      2  C   UNL     1       0.417  -0.024   1.915  1.00  0.00    +0.135 A 
ATOM      3  C   UNL     1       1.512   0.603   2.502  1.00  0.00    +0.040 A 
ATOM      4  C   UNL     1       2.513   1.152   1.696  1.00  0.00    +0.007 A 
ATOM      5  C   UNL     1       2.435   1.062   0.297  1.00  0.00    -0.041 A 
ATOM      6  C   UNL     1       1.313   0.448  -0.281  1.00  0.00    +0.021 A 
ATOM      7  F   UNL     1      -0.521  -0.558   2.710  1.00  0.00    -0.206 F 
ENDROOT
BRANCH   1   8
ATOM      8  C   UNL     1      -0.824  -0.783  -0.116  1.00  0.00    +0.256 C 
ATOM      9  C   UNL     1      -5.743   1.001  -0.044  1.00  0.00    +0.225 C 
ATOM     10  O   UNL     1      -5.751   2.226   0.020  1.00  0.00    -0.275 OA
ATOM     11  N   UNL     1      -4.878   0.199   0.688  1.00  0.00    -0.339 N 
ATOM     12  C   UNL     1      -3.844   0.855   1.489  1.00  0.00    +0.141 C 
ATOM     13  C   UNL     1      -4.527  -1.171   0.306  1.00  0.00    +0.141 C 
ATOM     14  C   UNL     1      -2.519   0.895   0.713  1.00  0.00    +0.141 C 
ATOM     15  C   UNL     1      -3.204  -1.182  -0.478  1.00  0.00    +0.141 C 
ATOM     16  N   UNL     1      -2.136  -0.443   0.214  1.00  0.00    -0.335 N 
ATOM     17  O   UNL     1      -0.540  -1.651  -0.941  1.00  0.00    -0.269 OA
BRANCH   9  18
ATOM     18  C   UNL     1      -6.698   0.318  -0.960  1.00  0.00    +0.079 C 
ATOM     19  C   UNL     1      -8.131   0.799  -1.035  1.00  0.00    +0.014 C 
ATOM     20  C   UNL     1      -7.825  -0.525  -0.407  1.00  0.00    +0.014 C 
ENDBRANCH   9  18
ENDBRANCH   1   8
BRANCH   5  21
ATOM     21  C   UNL     1       3.524   1.639  -0.581  1.00  0.00    +0.094 C 
BRANCH  21  22
ATOM     22  C   UNL     1       4.923   1.178  -0.192  1.00  0.00    +0.073 C 
ATOM     23  N   UNL     1       5.655   2.019   0.479  1.00  0.00    -0.177 NA
ATOM     24  C   UNL     1       5.393  -0.181  -0.568  1.00  0.00    +0.011 A 
ATOM     25  N   UNL     1       6.906   1.636   0.850  1.00  0.00    -0.243 N 
ATOM     26  C   UNL     1       4.619  -1.097  -1.290  1.00  0.00    +0.011 A 
ATOM     27  C   UNL     1       6.678  -0.542  -0.168  1.00  0.00    +0.050 A 
ATOM     28  C   UNL     1       7.493   0.422   0.589  1.00  0.00    +0.272 C 
ATOM     29  C   UNL     1       5.134  -2.361  -1.599  1.00  0.00    +0.001 A 
ATOM     30  C   UNL     1       7.196  -1.805  -0.479  1.00  0.00    +0.014 A 
ATOM     31  O   UNL     1       8.629   0.149   0.960  1.00  0.00    -0.267 OA
ATOM     32  C   UNL     1       6.420  -2.715  -1.195  1.00  0.00    +0.001 A 
ATOM     33  H   UNL     1       7.455   2.314   1.368  1.00  0.00    +0.194 HD
ENDBRANCH  21  22
ENDBRANCH   5  21
TORSDOF 4
