REMARK SMILES O=C(c1cc(Cc2n[nH]c(=O)c3ccccc23)ccc1F)N1CCN(C(=O)C2CC2)CC1
REMARK SMILES IDX 3 1 20 2 19 3 18 4 5 5 4 6 21 7 2 8 26 9 27 10 25 11 24 12
REMARK SMILES IDX 31 13 23 14 32 15 22 16 1 17 28 18 29 19 30 20 6 21 7 22
REMARK SMILES IDX 8 23 17 24 9 25 16 26 12 27 10 28 15 29 13 30 11 31 14 32
REMARK H PARENT 9 33
ROOT
ATOM      1  C   UNL     1       0.304  -0.055   0.160  1.00  0.00    +0.076 A 
ATOM      2  C   UNL     1       0.113   0.533   1.406  1.00  0.00    +0.135 A 
ATOM      3  C   UNL     1       0.989   0.260   2.452  1.00  0.00    +0.040 A 
ATOM      4  C   UNL     1       2.081  -0.586   2.243  1.00  0.00    +0.007 A 
ATOM      5  C   UNL     1       2.317  -1.150   0.979  1.00  0.00    -0.041 A 
ATOM      6  C   UNL     1       1.411  -0.887  -0.059  1.00  0.00    +0.021 A 
ATOM      7  F   UNL     1      -0.908   1.373   1.625  1.00  0.00    -0.206 F 
ENDROOT
BRANCH   1   8
ATOM      8  C   UNL     1      -0.588   0.239  -0.976  1.00  0.00    +0.256 C 
ATOM      9  C   UNL     1      -6.171  -0.900  -0.769  1.00  0.00    +0.225 C 
ATOM     10  O   UNL     1      -6.606  -1.910  -0.229  1.00  0.00    -0.275 OA
ATOM     11  N   UNL     1      -4.821  -0.601  -0.859  1.00  0.00    -0.339 N 
ATOM     12  C   UNL     1      -3.857  -1.497  -0.219  1.00  0.00    +0.141 C 
ATOM     13  C   UNL     1      -4.277   0.558  -1.576  1.00  0.00    +0.141 C 
ATOM     14  C   UNL     1      -2.582  -0.768   0.226  1.00  0.00    +0.141 C 
ATOM     15  C   UNL     1      -2.812   0.367  -1.988  1.00  0.00    +0.141 C 
ATOM     16  N   UNL     1      -1.951  -0.009  -0.865  1.00  0.00    -0.335 N 
ATOM     17  O   UNL     1      -0.065   0.669  -2.003  1.00  0.00    -0.269 OA
BRANCH   9  18
ATOM     18  C   UNL     1      -7.123   0.069  -1.379  1.00  0.00    +0.079 C 
ATOM     19  C   UNL     1      -7.350   1.428  -0.756  1.00  0.00    +0.014 C 
ATOM     20  C   UNL     1      -8.423   0.386  -0.672  1.00  0.00    +0.014 C 
ENDBRANCH   9  18
ENDBRANCH   1   8
BRANCH   5  21
ATOM     21  C   UNL     1       3.507  -2.054   0.740  1.00  0.00    +0.094 C 
BRANCH  21  22
ATOM     22  C   UNL     1       4.827  -1.451   1.204  1.00  0.00    +0.073 C 
ATOM     23  N   UNL     1       5.309  -1.886   2.333  1.00  0.00    -0.177 NA
ATOM     24  C   UNL     1       5.500  -0.409   0.386  1.00  0.00    +0.011 A 
ATOM     25  N   UNL     1       6.481  -1.363   2.780  1.00  0.00    -0.243 N 
ATOM     26  C   UNL     1       4.996   0.069  -0.829  1.00  0.00    +0.011 A 
ATOM     27  C   UNL     1       6.698   0.108   0.878  1.00  0.00    +0.050 A 
ATOM     28  C   UNL     1       7.228  -0.396   2.155  1.00  0.00    +0.272 C 
ATOM     29  C   UNL     1       5.690   1.057  -1.536  1.00  0.00    +0.001 A 
ATOM     30  C   UNL     1       7.394   1.096   0.170  1.00  0.00    +0.014 A 
ATOM     31  O   UNL     1       8.278   0.027   2.624  1.00  0.00    -0.267 OA
ATOM     32  C   UNL     1       6.887   1.570  -1.038  1.00  0.00    +0.001 A 
ATOM     33  H   UNL     1       6.834  -1.725   3.661  1.00  0.00    +0.194 HD
ENDBRANCH  21  22
ENDBRANCH   5  21
TORSDOF 4
