REMARK SMILES CC(=O)O[C@H]1C(=O)[C@@]2(C)[C@H]([C@H](OC(=O)c3ccccc3)[C@]3(O)C[C@H](OC(=O)[C@H](O)[C@@H](NC(=O)c4ccccc4)c4ccccc4)C(C)=C1C3(C)C)[C@]1(OC(C)=O)CO[C@@H]1C[C@@H]2O
REMARK SMILES IDX 47 1 46 2 48 3 21 4 49 5 50 6 51 7 23 8 24 9 5 10 6 11 7 12
REMARK SMILES IDX 4 14 2 15 3 16 1 17 25 18 26 19 27 20 28 21 30 22 40 23
REMARK SMILES IDX 41 24 45 25 42 26 44 27 43 28 31 29 32 30 33 31 34 33 35 34
REMARK SMILES IDX 39 35 36 36 38 37 37 38 29 39 11 41 10 42 52 43 8 44 59 45
REMARK SMILES IDX 57 46 61 47 60 48 58 49 9 50 53 52 54 53 56 54 55 55 62 56
REMARK SMILES IDX 12 58 13 59 14 60 15 61 16 62 20 63 17 64 19 65 18 66 22 67
REMARK H PARENT 31 32 29 40 62 57 22 68
REMARK Flexibility Score:  233.900
ROOT
ATOM      1  C   UNL     1       2.345  -2.709  -0.735  1.00  0.00    +0.043 C 
ATOM      2  C   UNL     1       1.317  -2.659   0.377  1.00  0.00    -0.029 C 
ATOM      3  C   UNL     1       0.133  -3.340   0.363  1.00  0.00    -0.011 C 
ATOM      4  C   UNL     1      -0.787  -2.064   2.255  1.00  0.00    +0.115 C 
ATOM      5  C   UNL     1      -0.619  -3.500   1.683  1.00  0.00    +0.023 C 
ATOM      6  C   UNL     1      -1.967  -4.268   1.719  1.00  0.00    +0.019 C 
ATOM      7  C   UNL     1       0.278  -4.397   2.609  1.00  0.00    +0.019 C 
ATOM      8  C   UNL     1       0.593  -1.410   2.524  1.00  0.00    +0.090 C 
ATOM      9  C   UNL     1       1.701  -1.712   1.503  1.00  0.00    +0.205 C 
ENDROOT
BRANCH   3  10
ATOM     10  C   UNL     1      -0.472  -3.741  -0.973  1.00  0.00    +0.270 C 
BRANCH  10  11
ATOM     11  C   UNL     1      -0.668  -2.408  -1.729  1.00  0.00    +0.186 CG0
ATOM     12  O   UNL     1       0.139  -2.148  -2.640  1.00  0.00    -0.294 OA
ATOM     13  G   UNL     1      -1.787  -1.362  -1.344  1.00  0.00    +0.000 G0
ENDBRANCH  10  11
BRANCH  10  14
ATOM     14  O   UNL     1      -1.628  -4.550  -0.885  1.00  0.00    -0.450 OA
BRANCH  14  15
ATOM     15  C   UNL     1      -1.971  -5.194  -2.034  1.00  0.00    +0.303 C 
ATOM     16  O   UNL     1      -1.385  -5.096  -3.101  1.00  0.00    -0.253 OA
ATOM     17  C   UNL     1      -3.188  -6.037  -1.805  1.00  0.00    +0.139 C 
ENDBRANCH  14  15
ENDBRANCH  10  14
ENDBRANCH   3  10
BRANCH   9  18
ATOM     18  O   UNL     1       2.010  -0.438   0.892  1.00  0.00    -0.456 OA
BRANCH  18  19
ATOM     19  C   UNL     1       3.291   0.020   0.981  1.00  0.00    +0.338 C 
ATOM     20  O   UNL     1       4.227  -0.590   1.479  1.00  0.00    -0.249 OA
BRANCH  19  21
ATOM     21  C   UNL     1       3.397   1.401   0.334  1.00  0.00    +0.251 C 
BRANCH  21  22
ATOM     22  C   UNL     1       3.583   1.217  -1.202  1.00  0.00    +0.153 C 
BRANCH  22  23
ATOM     23  C   UNL     1       5.026   0.922  -1.580  1.00  0.00    -0.022 A 
ATOM     24  C   UNL     1       6.057   1.835  -1.296  1.00  0.00    +0.006 A 
ATOM     25  C   UNL     1       5.347  -0.267  -2.253  1.00  0.00    +0.006 A 
ATOM     26  C   UNL     1       7.375   1.555  -1.661  1.00  0.00    +0.000 A 
ATOM     27  C   UNL     1       6.666  -0.543  -2.617  1.00  0.00    +0.000 A 
ATOM     28  C   UNL     1       7.679   0.366  -2.320  1.00  0.00    +0.000 A 
ENDBRANCH  22  23
BRANCH  22  29
ATOM     29  N   UNL     1       3.105   2.352  -1.997  1.00  0.00    -0.342 N 
ATOM     30  C   UNL     1       1.757   2.544  -2.214  1.00  0.00    +0.251 C 
ATOM     31  O   UNL     1       0.895   1.859  -1.669  1.00  0.00    -0.269 OA
ATOM     32  H   UNL     1       3.762   2.786  -2.633  1.00  0.00    +0.164 HD
BRANCH  30  33
ATOM     33  C   UNL     1       1.383   3.621  -3.166  1.00  0.00    +0.039 A 
ATOM     34  C   UNL     1       2.160   4.777  -3.310  1.00  0.00    +0.014 A 
ATOM     35  C   UNL     1       0.205   3.477  -3.908  1.00  0.00    +0.014 A 
ATOM     36  C   UNL     1       1.767   5.772  -4.208  1.00  0.00    +0.001 A 
ATOM     37  C   UNL     1      -0.183   4.473  -4.805  1.00  0.00    +0.001 A 
ATOM     38  C   UNL     1       0.599   5.618  -4.956  1.00  0.00    +0.000 A 
ENDBRANCH  30  33
ENDBRANCH  22  29
ENDBRANCH  21  22
BRANCH  21  39
ATOM     39  O   UNL     1       2.243   2.185   0.669  1.00  0.00    -0.379 OA
ATOM     40  H   UNL     1       1.509   1.838   0.114  1.00  0.00    +0.211 HD
ENDBRANCH  21  39
ENDBRANCH  19  21
ENDBRANCH  18  19
ENDBRANCH   9  18
BRANCH   4  41
ATOM     41  C   UNL     1      -1.788  -1.104   1.443  1.00  0.00    +0.218 C 
BRANCH  41  42
ATOM     42  C   UNL     1      -1.459  -0.500  -0.020  1.00  0.00    +0.098 C 
ATOM     43  C   UNL     1      -2.095   0.972  -0.089  1.00  0.00    +0.169 C 
ATOM     44  C   UNL     1      -1.787  -1.362  -1.344  1.00  0.00    +0.067 CG0
ATOM     45  C   UNL     1      -2.651   1.538  -1.441  1.00  0.00    +0.168 C 
ATOM     46  C   UNL     1      -3.590   1.099   0.349  1.00  0.00    +0.212 C 
ATOM     47  C   UNL     1      -1.758  -0.419  -2.621  1.00  0.00    +0.131 C 
ATOM     48  C   UNL     1      -2.820   0.649  -2.638  1.00  0.00    +0.069 C 
ATOM     49  O   UNL     1      -3.960   1.769  -0.867  1.00  0.00    -0.370 OA
ATOM     50  C   UNL     1      -3.160  -2.049  -1.291  1.00  0.00    +0.023 C 
ATOM     51  G   UNL     1      -0.668  -2.408  -1.729  1.00  0.00    +0.000 G0
BRANCH  43  52
ATOM     52  O   UNL     1      -1.116   1.841   0.582  1.00  0.00    -0.454 OA
BRANCH  52  53
ATOM     53  C   UNL     1      -1.414   3.150   0.825  1.00  0.00    +0.303 C 
ATOM     54  O   UNL     1      -2.451   3.730   0.543  1.00  0.00    -0.253 OA
ATOM     55  C   UNL     1      -0.258   3.835   1.485  1.00  0.00    +0.139 C 
ENDBRANCH  52  53
ENDBRANCH  43  52
BRANCH  47  56
ATOM     56  O   UNL     1      -1.981  -1.171  -3.824  1.00  0.00    -0.392 OA
ATOM     57  H   UNL     1      -1.136  -1.632  -4.015  1.00  0.00    +0.210 HD
ENDBRANCH  47  56
ENDBRANCH  41  42
BRANCH  41  58
ATOM     58  O   UNL     1      -1.960   0.039   2.361  1.00  0.00    -0.455 OA
BRANCH  58  59
ATOM     59  C   UNL     1      -2.958  -0.028   3.282  1.00  0.00    +0.338 C 
ATOM     60  O   UNL     1      -3.770  -0.937   3.367  1.00  0.00    -0.246 OA
BRANCH  59  61
ATOM     61  C   UNL     1      -2.943   1.168   4.155  1.00  0.00    +0.060 A 
ATOM     62  C   UNL     1      -1.777   1.916   4.361  1.00  0.00    +0.015 A 
ATOM     63  C   UNL     1      -4.130   1.538   4.799  1.00  0.00    +0.015 A 
ATOM     64  C   UNL     1      -1.805   3.038   5.190  1.00  0.00    +0.001 A 
ATOM     65  C   UNL     1      -4.154   2.662   5.627  1.00  0.00    +0.001 A 
ATOM     66  C   UNL     1      -2.993   3.412   5.819  1.00  0.00    +0.000 A 
ENDBRANCH  59  61
ENDBRANCH  58  59
ENDBRANCH  41  58
ENDBRANCH   4  41
BRANCH   4  67
ATOM     67  O   UNL     1      -1.331  -2.234   3.599  1.00  0.00    -0.385 OA
ATOM     68  H   UNL     1      -2.305  -2.317   3.542  1.00  0.00    +0.211 HD
ENDBRANCH   4  67
TORSDOF 17
