REMARK SMILES CC(=O)O[C@H]1C(=O)[C@@]2(C)[C@H]([C@H](OC(=O)c3ccccc3)[C@]3(O)C[C@H](OC(=O)[C@H](O)[C@@H](NC(=O)c4ccccc4)c4ccccc4)C(C)=C1C3(C)C)C1(OC(C)=O)CO[C@@H]1C[C@@H]2O
REMARK SMILES IDX 21 1 23 2 24 3 46 4 47 5 48 6 49 7 50 8 51 9 5 10 4 12 2 13
REMARK SMILES IDX 3 14 1 15 25 16 26 17 27 18 28 19 29 20 30 22 31 23 32 24
REMARK SMILES IDX 33 25 34 27 35 28 39 29 36 30 38 31 37 32 40 33 41 34 45 35
REMARK SMILES IDX 42 36 44 37 43 38 11 39 10 40 52 41 8 42 57 43 59 44 61 45
REMARK SMILES IDX 58 46 60 47 9 48 53 49 54 50 56 51 55 52 6 53 7 54 62 56
REMARK SMILES IDX 12 58 13 59 14 60 15 61 16 62 20 63 17 64 19 65 18 66 22 67
REMARK H PARENT 29 21 31 26 62 57 22 68
REMARK Flexibility Score:  233.900
ROOT
ATOM      1  C   UNL     1      -1.643   1.139   1.236  1.00  0.00    +0.115 C 
ATOM      2  C   UNL     1      -0.084   0.950   1.060  1.00  0.00    +0.090 C 
ATOM      3  C   UNL     1       0.797   1.174   2.321  1.00  0.00    +0.205 C 
ATOM      4  C   UNL     1       0.186   0.462   3.528  1.00  0.00    -0.029 C 
ATOM      5  C   UNL     1       1.089  -0.121   4.578  1.00  0.00    +0.043 C 
ATOM      6  C   UNL     1      -1.121   0.101   3.481  1.00  0.00    -0.011 C 
ATOM      7  C   UNL     1      -2.061   1.088   2.776  1.00  0.00    +0.023 C 
ATOM      8  C   UNL     1      -3.568   0.825   3.008  1.00  0.00    +0.019 C 
ATOM      9  C   UNL     1      -1.891   2.473   3.485  1.00  0.00    +0.019 C 
ENDROOT
BRANCH   6  10
ATOM     10  C   UNL     1      -1.369  -1.412   3.518  1.00  0.00    +0.270 CG0
ATOM     11  G   UNL     1      -0.969  -2.010   2.172  1.00  0.00    +0.000 G0
BRANCH  10  12
ATOM     12  O   UNL     1      -2.684  -1.738   3.943  1.00  0.00    -0.450 OA
BRANCH  12  13
ATOM     13  C   UNL     1      -3.141  -1.520   5.247  1.00  0.00    +0.303 C 
ATOM     14  O   UNL     1      -2.352  -1.154   6.165  1.00  0.00    -0.253 OA
ATOM     15  C   UNL     1      -4.597  -1.657   5.538  1.00  0.00    +0.139 C 
ENDBRANCH  12  13
ENDBRANCH  10  12
ENDBRANCH   6  10
BRANCH   3  16
ATOM     16  O   UNL     1       2.126   0.655   2.141  1.00  0.00    -0.456 OA
BRANCH  16  17
ATOM     17  C   UNL     1       2.941   0.772   0.995  1.00  0.00    +0.338 C 
ATOM     18  O   UNL     1       2.446   0.711  -0.161  1.00  0.00    -0.249 OA
BRANCH  17  19
ATOM     19  C   UNL     1       4.410   1.025   1.201  1.00  0.00    +0.251 C 
BRANCH  19  20
ATOM     20  O   UNL     1       4.605   2.413   1.316  1.00  0.00    -0.379 OA
ATOM     21  H   UNL     1       4.355   2.821   0.440  1.00  0.00    +0.211 HD
ENDBRANCH  19  20
BRANCH  19  22
ATOM     22  C   UNL     1       5.397   0.356   0.194  1.00  0.00    +0.153 C 
BRANCH  22  23
ATOM     23  N   UNL     1       4.936   0.368  -1.207  1.00  0.00    -0.342 N 
ATOM     24  C   UNL     1       4.293  -0.780  -1.803  1.00  0.00    +0.251 C 
ATOM     25  O   UNL     1       4.182  -1.854  -1.141  1.00  0.00    -0.269 OA
ATOM     26  H   UNL     1       5.142   1.181  -1.821  1.00  0.00    +0.164 HD
BRANCH  24  27
ATOM     27  C   UNL     1       3.747  -0.730  -3.176  1.00  0.00    +0.039 A 
ATOM     28  C   UNL     1       3.670  -1.909  -3.941  1.00  0.00    +0.014 A 
ATOM     29  C   UNL     1       3.251   0.473  -3.724  1.00  0.00    +0.014 A 
ATOM     30  C   UNL     1       3.151  -1.869  -5.233  1.00  0.00    +0.001 A 
ATOM     31  C   UNL     1       2.731   0.495  -5.019  1.00  0.00    +0.001 A 
ATOM     32  C   UNL     1       2.685  -0.673  -5.778  1.00  0.00    +0.000 A 
ENDBRANCH  24  27
ENDBRANCH  22  23
BRANCH  22  33
ATOM     33  C   UNL     1       6.779   0.995   0.321  1.00  0.00    -0.022 A 
ATOM     34  C   UNL     1       7.066   2.251  -0.258  1.00  0.00    +0.006 A 
ATOM     35  C   UNL     1       7.754   0.389   1.137  1.00  0.00    +0.006 A 
ATOM     36  C   UNL     1       8.272   2.898   0.005  1.00  0.00    +0.000 A 
ATOM     37  C   UNL     1       8.972   1.028   1.372  1.00  0.00    +0.000 A 
ATOM     38  C   UNL     1       9.217   2.288   0.836  1.00  0.00    +0.000 A 
ENDBRANCH  22  33
ENDBRANCH  19  22
ENDBRANCH  17  19
ENDBRANCH  16  17
ENDBRANCH   3  16
BRANCH   1  39
ATOM     39  C   UNL     1      -2.479   0.137   0.302  1.00  0.00    +0.218 C 
BRANCH  39  40
ATOM     40  C   UNL     1      -1.936  -1.286  -0.114  1.00  0.00    +0.098 C 
ATOM     41  C   UNL     1      -2.592  -1.754  -1.461  1.00  0.00    +0.169 C 
ATOM     42  C   UNL     1      -1.868  -2.426   0.988  1.00  0.00    +0.067 C 
ATOM     43  C   UNL     1      -4.093  -1.930  -1.465  1.00  0.00    +0.212 C 
ATOM     44  C   UNL     1      -2.586  -3.227  -1.824  1.00  0.00    +0.168 C 
ATOM     45  C   UNL     1      -1.152  -3.633   0.295  1.00  0.00    +0.131 C 
ATOM     46  O   UNL     1      -3.992  -3.298  -1.781  1.00  0.00    -0.370 OA
ATOM     47  C   UNL     1      -1.937  -4.244  -0.867  1.00  0.00    +0.069 C 
ATOM     48  C   UNL     1      -3.250  -2.899   1.507  1.00  0.00    +0.023 C 
BRANCH  41  49
ATOM     49  O   UNL     1      -2.202  -0.932  -2.572  1.00  0.00    -0.454 OA
BRANCH  49  50
ATOM     50  C   UNL     1      -0.939  -0.958  -3.180  1.00  0.00    +0.303 C 
ATOM     51  O   UNL     1      -0.029  -1.723  -2.753  1.00  0.00    -0.253 OA
ATOM     52  C   UNL     1      -0.680  -0.097  -4.365  1.00  0.00    +0.139 C 
ENDBRANCH  49  50
ENDBRANCH  41  49
BRANCH  42  53
ATOM     53  C   UNL     1      -0.969  -2.010   2.172  1.00  0.00    +0.186 CG0
ATOM     54  O   UNL     1       0.244  -2.149   2.022  1.00  0.00    -0.294 OA
ATOM     55  G   UNL     1      -1.369  -1.412   3.518  1.00  0.00    +0.000 G0
ENDBRANCH  42  53
BRANCH  45  56
ATOM     56  O   UNL     1      -0.795  -4.644   1.220  1.00  0.00    -0.392 OA
ATOM     57  H   UNL     1      -1.623  -5.039   1.583  1.00  0.00    +0.210 HD
ENDBRANCH  45  56
ENDBRANCH  39  40
BRANCH  39  58
ATOM     58  O   UNL     1      -2.803   0.856  -0.896  1.00  0.00    -0.455 OA
BRANCH  58  59
ATOM     59  C   UNL     1      -4.042   1.468  -1.135  1.00  0.00    +0.338 C 
ATOM     60  O   UNL     1      -5.003   1.296  -0.328  1.00  0.00    -0.246 OA
BRANCH  59  61
ATOM     61  C   UNL     1      -4.228   2.308  -2.330  1.00  0.00    +0.060 A 
ATOM     62  C   UNL     1      -3.119   2.683  -3.114  1.00  0.00    +0.015 A 
ATOM     63  C   UNL     1      -5.507   2.752  -2.703  1.00  0.00    +0.015 A 
ATOM     64  C   UNL     1      -3.289   3.508  -4.230  1.00  0.00    +0.001 A 
ATOM     65  C   UNL     1      -5.675   3.572  -3.819  1.00  0.00    +0.001 A 
ATOM     66  C   UNL     1      -4.567   3.951  -4.582  1.00  0.00    +0.000 A 
ENDBRANCH  59  61
ENDBRANCH  58  59
ENDBRANCH  39  58
ENDBRANCH   1  39
BRANCH   1  67
ATOM     67  O   UNL     1      -1.948   2.436   0.756  1.00  0.00    -0.385 OA
ATOM     68  H   UNL     1      -1.282   3.093   1.104  1.00  0.00    +0.211 HD
ENDBRANCH   1  67
TORSDOF 17
