REMARK SMILES CC(=O)c1c(C)c2cnc(Nc3ccc(N4CCNCC4)cn3)nc2n(C2CCCC2)c1=O
REMARK SMILES IDX 11 1 10 3 5 4 4 5 7 6 32 7 8 8 25 9 33 10 26 11 9 12 24 13
REMARK SMILES IDX 6 14 2 15 3 16 1 17 27 18 28 19 31 20 29 21 30 22 12 23
REMARK SMILES IDX 23 24 13 25 22 26 14 27 15 28 16 29 17 30 21 31 18 32 20 33
REMARK SMILES IDX 19 34
REMARK H PARENT 11 2 19 35
ROOT
ATOM      1  N   UNL     1       1.113   2.613  -0.810  1.00  0.00    -0.309 N 
ATOM      2  H   UNL     1       1.445   3.513  -1.121  1.00  0.00    +0.171 HD
ENDROOT
BRANCH   1   3
ATOM      3  C   UNL     1      -0.266   2.556  -0.750  1.00  0.00    +0.230 A 
ATOM      4  C   UNL     1      -4.483   2.620  -0.570  1.00  0.00    -0.022 C 
ATOM      5  C   UNL     1      -5.109   1.468  -0.251  1.00  0.00    +0.086 C 
ATOM      6  C   UNL     1      -3.011   2.603  -0.649  1.00  0.00    +0.040 A 
ATOM      7  C   UNL     1      -4.347   0.222   0.058  1.00  0.00    +0.263 C 
ATOM      8  C   UNL     1      -2.241   3.698  -0.987  1.00  0.00    +0.127 A 
ATOM      9  C   UNL     1      -2.275   1.458  -0.390  1.00  0.00    +0.148 A 
ATOM     10  O   UNL     1      -4.971  -0.779   0.408  1.00  0.00    -0.268 OA
ATOM     11  N   UNL     1      -2.965   0.254  -0.068  1.00  0.00    -0.289 N 
ATOM     12  N   UNL     1      -0.895   3.699  -1.044  1.00  0.00    -0.221 NA
ATOM     13  N   UNL     1      -0.923   1.436  -0.429  1.00  0.00    -0.194 NA
ATOM     14  C   UNL     1      -5.183   3.932  -0.827  1.00  0.00    +0.046 C 
BRANCH   5  15
ATOM     15  C   UNL     1      -6.602   1.414  -0.198  1.00  0.00    +0.165 C 
ATOM     16  O   UNL     1      -7.276   1.795  -1.156  1.00  0.00    -0.294 OA
ATOM     17  C   UNL     1      -7.251   0.894   1.058  1.00  0.00    +0.094 C 
ENDBRANCH   5  15
BRANCH  11  18
ATOM     18  C   UNL     1      -2.173  -0.956   0.208  1.00  0.00    +0.092 C 
ATOM     19  C   UNL     1      -2.177  -1.358   1.691  1.00  0.00    +0.025 C 
ATOM     20  C   UNL     1      -2.611  -2.215  -0.573  1.00  0.00    +0.025 C 
ATOM     21  C   UNL     1      -2.015  -2.870   1.664  1.00  0.00    +0.002 C 
ATOM     22  C   UNL     1      -2.870  -3.289   0.479  1.00  0.00    +0.002 C 
ENDBRANCH  11  18
ENDBRANCH   1   3
BRANCH   1  23
ATOM     23  C   UNL     1       2.145   1.726  -0.577  1.00  0.00    +0.132 A 
ATOM     24  N   UNL     1       3.377   2.210  -0.826  1.00  0.00    -0.237 NA
ATOM     25  C   UNL     1       1.980   0.432  -0.112  1.00  0.00    +0.049 A 
ATOM     26  C   UNL     1       4.442   1.388  -0.619  1.00  0.00    +0.139 A 
ATOM     27  C   UNL     1       3.097  -0.393   0.086  1.00  0.00    +0.031 A 
ATOM     28  C   UNL     1       4.387   0.061  -0.185  1.00  0.00    +0.055 A 
BRANCH  28  29
ATOM     29  N   UNL     1       5.543  -0.709   0.001  1.00  0.00    -0.368 N 
ATOM     30  C   UNL     1       5.409  -2.023   0.666  1.00  0.00    +0.132 C 
ATOM     31  C   UNL     1       6.473  -0.725  -1.156  1.00  0.00    +0.132 C 
ATOM     32  C   UNL     1       6.793  -2.633   0.983  1.00  0.00    +0.102 C 
ATOM     33  C   UNL     1       7.817  -1.395  -0.786  1.00  0.00    +0.102 C 
ATOM     34  N   UNL     1       7.671  -2.741  -0.199  1.00  0.00    -0.313 NA
ATOM     35  H   UNL     1       7.209  -3.339  -0.885  1.00  0.00    +0.122 HD
ENDBRANCH  28  29
ENDBRANCH   1  23
TORSDOF 5
