REMARK SMILES CC(=O)c1c(C)c2cnc(Nc3ccc(N4CCNCC4)cn3)nc2n(C2CCCC2)c1=O
REMARK SMILES IDX 11 1 10 3 5 4 4 5 7 6 32 7 8 8 25 9 33 10 26 11 9 12 24 13
REMARK SMILES IDX 6 14 2 15 3 16 1 17 27 18 28 19 31 20 29 21 30 22 12 23
REMARK SMILES IDX 23 24 13 25 22 26 14 27 15 28 16 29 17 30 21 31 18 32 20 33
REMARK SMILES IDX 19 34
REMARK H PARENT 11 2 19 35
ROOT
ATOM      1  N   UNL     1       0.839  -0.704   0.305  1.00  0.00    -0.309 N 
ATOM      2  H   UNL     1       0.527  -1.491   0.851  1.00  0.00    +0.171 HD
ENDROOT
BRANCH   1   3
ATOM      3  C   UNL     1      -0.206   0.075  -0.151  1.00  0.00    +0.230 A 
ATOM      4  C   UNL     1      -3.573   2.303  -1.385  1.00  0.00    -0.022 C 
ATOM      5  C   UNL     1      -4.789   1.832  -1.039  1.00  0.00    +0.086 C 
ATOM      6  C   UNL     1      -2.391   1.527  -0.966  1.00  0.00    +0.040 A 
ATOM      7  C   UNL     1      -4.947   0.598  -0.213  1.00  0.00    +0.263 C 
ATOM      8  C   UNL     1      -1.089   1.861  -1.282  1.00  0.00    +0.127 A 
ATOM      9  C   UNL     1      -2.505   0.374  -0.208  1.00  0.00    +0.148 A 
ATOM     10  O   UNL     1      -6.081   0.243   0.105  1.00  0.00    -0.268 OA
ATOM     11  N   UNL     1      -3.800  -0.089   0.159  1.00  0.00    -0.289 N 
ATOM     12  N   UNL     1      -0.002   1.167  -0.892  1.00  0.00    -0.221 NA
ATOM     13  N   UNL     1      -1.431  -0.336   0.200  1.00  0.00    -0.194 NA
ATOM     14  C   UNL     1      -3.334   3.580  -2.154  1.00  0.00    +0.046 C 
BRANCH   5  15
ATOM     15  C   UNL     1      -6.025   2.549  -1.481  1.00  0.00    +0.165 C 
ATOM     16  O   UNL     1      -6.194   2.832  -2.668  1.00  0.00    -0.294 OA
ATOM     17  C   UNL     1      -7.043   2.924  -0.435  1.00  0.00    +0.094 C 
ENDBRANCH   5  15
BRANCH  11  18
ATOM     18  C   UNL     1      -3.902  -1.309   0.980  1.00  0.00    +0.092 C 
ATOM     19  C   UNL     1      -4.439  -1.047   2.396  1.00  0.00    +0.025 C 
ATOM     20  C   UNL     1      -4.804  -2.411   0.383  1.00  0.00    +0.025 C 
ATOM     21  C   UNL     1      -5.160  -2.335   2.762  1.00  0.00    +0.002 C 
ATOM     22  C   UNL     1      -5.835  -2.736   1.460  1.00  0.00    +0.002 C 
ENDBRANCH  11  18
ENDBRANCH   1   3
BRANCH   1  23
ATOM     23  C   UNL     1       2.214  -0.662   0.182  1.00  0.00    +0.132 A 
ATOM     24  N   UNL     1       2.870  -1.656   0.813  1.00  0.00    -0.237 NA
ATOM     25  C   UNL     1       2.912   0.304  -0.524  1.00  0.00    +0.049 A 
ATOM     26  C   UNL     1       4.228  -1.677   0.734  1.00  0.00    +0.139 A 
ATOM     27  C   UNL     1       4.313   0.258  -0.581  1.00  0.00    +0.031 A 
ATOM     28  C   UNL     1       5.030  -0.742   0.074  1.00  0.00    +0.055 A 
BRANCH  28  29
ATOM     29  N   UNL     1       6.428  -0.849   0.048  1.00  0.00    -0.368 N 
ATOM     30  C   UNL     1       7.180   0.049  -0.854  1.00  0.00    +0.132 C 
ATOM     31  C   UNL     1       7.064  -1.020   1.378  1.00  0.00    +0.132 C 
ATOM     32  C   UNL     1       8.672  -0.347  -0.920  1.00  0.00    +0.102 C 
ATOM     33  C   UNL     1       8.566  -1.364   1.240  1.00  0.00    +0.102 C 
ATOM     34  N   UNL     1       9.322  -0.411   0.404  1.00  0.00    -0.313 NA
ATOM     35  H   UNL     1       9.256   0.511   0.835  1.00  0.00    +0.122 HD
ENDBRANCH  28  29
ENDBRANCH   1  23
TORSDOF 5
