REMARK SMILES CC(=O)c1c(C)c2cnc(Nc3ccc(N4CCNCC4)cn3)nc2n(C2CCCC2)c1=O
REMARK SMILES IDX 11 1 10 3 5 4 4 5 7 6 32 7 8 8 25 9 33 10 26 11 9 12 24 13
REMARK SMILES IDX 6 14 2 15 3 16 1 17 27 18 28 19 31 20 29 21 30 22 12 23
REMARK SMILES IDX 23 24 13 25 22 26 14 27 15 28 16 29 17 30 21 31 18 32 20 33
REMARK SMILES IDX 19 34
REMARK H PARENT 11 2 19 35
ROOT
ATOM      1  N   UNL     1       0.455   0.680  -0.073  1.00  0.00    -0.309 N 
ATOM      2  H   UNL     1       0.180   1.507  -0.578  1.00  0.00    +0.171 HD
ENDROOT
BRANCH   1   3
ATOM      3  C   UNL     1      -0.602  -0.175   0.166  1.00  0.00    +0.230 A 
ATOM      4  C   UNL     1      -3.994  -2.624   0.727  1.00  0.00    -0.022 C 
ATOM      5  C   UNL     1      -5.178  -2.157   0.278  1.00  0.00    +0.086 C 
ATOM      6  C   UNL     1      -2.805  -1.771   0.543  1.00  0.00    +0.040 A 
ATOM      7  C   UNL     1      -5.286  -0.848  -0.433  1.00  0.00    +0.263 C 
ATOM      8  C   UNL     1      -1.539  -2.095   0.993  1.00  0.00    +0.127 A 
ATOM      9  C   UNL     1      -2.874  -0.552  -0.107  1.00  0.00    +0.148 A 
ATOM     10  O   UNL     1      -6.388  -0.492  -0.851  1.00  0.00    -0.268 OA
ATOM     11  N   UNL     1      -4.131  -0.095  -0.594  1.00  0.00    -0.289 N 
ATOM     12  N   UNL     1      -0.444  -1.330   0.817  1.00  0.00    -0.221 NA
ATOM     13  N   UNL     1      -1.790   0.230  -0.299  1.00  0.00    -0.194 NA
ATOM     14  C   UNL     1      -3.797  -3.966   1.388  1.00  0.00    +0.046 C 
BRANCH   5  15
ATOM     15  C   UNL     1      -6.426  -2.954   0.486  1.00  0.00    +0.165 C 
ATOM     16  O   UNL     1      -6.726  -3.366   1.607  1.00  0.00    -0.294 OA
ATOM     17  C   UNL     1      -7.291  -3.247  -0.712  1.00  0.00    +0.094 C 
ENDBRANCH   5  15
BRANCH  11  18
ATOM     18  C   UNL     1      -4.228   1.193  -1.295  1.00  0.00    +0.092 C 
ATOM     19  C   UNL     1      -3.510   1.244  -2.652  1.00  0.00    +0.025 C 
ATOM     20  C   UNL     1      -3.763   2.433  -0.506  1.00  0.00    +0.025 C 
ATOM     21  C   UNL     1      -3.201   2.723  -2.837  1.00  0.00    +0.002 C 
ATOM     22  C   UNL     1      -2.812   3.181  -1.439  1.00  0.00    +0.002 C 
ENDBRANCH  11  18
ENDBRANCH   1   3
BRANCH   1  23
ATOM     23  C   UNL     1       1.804   0.671   0.222  1.00  0.00    +0.132 A 
ATOM     24  N   UNL     1       2.488   1.745  -0.220  1.00  0.00    -0.237 NA
ATOM     25  C   UNL     1       2.451  -0.337   0.919  1.00  0.00    +0.049 A 
ATOM     26  C   UNL     1       3.823   1.802   0.035  1.00  0.00    +0.139 A 
ATOM     27  C   UNL     1       3.830  -0.251   1.161  1.00  0.00    +0.031 A 
ATOM     28  C   UNL     1       4.577   0.833   0.702  1.00  0.00    +0.055 A 
BRANCH  28  29
ATOM     29  N   UNL     1       5.955   0.982   0.919  1.00  0.00    -0.368 N 
ATOM     30  C   UNL     1       6.744   1.307  -0.294  1.00  0.00    +0.132 C 
ATOM     31  C   UNL     1       6.627   0.024   1.821  1.00  0.00    +0.132 C 
ATOM     32  C   UNL     1       8.200   1.684   0.069  1.00  0.00    +0.102 C 
ATOM     33  C   UNL     1       8.080   0.461   2.118  1.00  0.00    +0.102 C 
ATOM     34  N   UNL     1       8.887   0.678   0.902  1.00  0.00    -0.313 NA
ATOM     35  H   UNL     1       8.918  -0.198   0.380  1.00  0.00    +0.122 HD
ENDBRANCH  28  29
ENDBRANCH   1  23
TORSDOF 5
