REMARK SMILES CC(=O)c1c(C)c2cnc(Nc3ccc(N4CCNCC4)cn3)nc2n(C2CCCC2)c1=O
REMARK SMILES IDX 11 1 10 3 4 4 5 5 32 6 7 7 26 8 33 9 8 10 25 11 9 12 24 13
REMARK SMILES IDX 6 14 2 15 3 16 1 17 27 18 28 19 31 20 29 21 30 22 12 23
REMARK SMILES IDX 13 24 23 25 14 26 22 27 15 28 16 29 17 30 21 31 18 32 20 33
REMARK SMILES IDX 19 34
REMARK H PARENT 11 2 19 35
ROOT
ATOM      1  N   UNL     1       0.911   0.992  -1.150  1.00  0.00    -0.309 N 
ATOM      2  H   UNL     1       0.728   1.886  -1.659  1.00  0.00    +0.171 HD
ENDROOT
BRANCH   1   3
ATOM      3  C   UNL     1      -0.216   0.174  -0.808  1.00  0.00    +0.230 A 
ATOM      4  C   UNL     1      -4.792  -1.505   0.309  1.00  0.00    +0.086 A 
ATOM      5  C   UNL     1      -3.542  -2.150   0.205  1.00  0.00    -0.022 A 
ATOM      6  C   UNL     1      -4.873  -0.109   0.153  1.00  0.00    +0.263 A 
ATOM      7  C   UNL     1      -2.415  -1.382  -0.160  1.00  0.00    +0.040 A 
ATOM      8  N   UNL     1      -3.756   0.644  -0.137  1.00  0.00    -0.289 N 
ATOM      9  O   UNL     1      -6.001   0.447   0.277  1.00  0.00    -0.268 OA
ATOM     10  C   UNL     1      -1.147  -1.955  -0.385  1.00  0.00    +0.127 A 
ATOM     11  C   UNL     1      -2.541   0.020  -0.313  1.00  0.00    +0.148 A 
ATOM     12  N   UNL     1      -0.087  -1.171  -0.698  1.00  0.00    -0.221 NA
ATOM     13  N   UNL     1      -1.433   0.745  -0.636  1.00  0.00    -0.194 NA
ATOM     14  C   UNL     1      -3.410  -3.635   0.485  1.00  0.00    +0.046 C 
BRANCH   4  15
ATOM     15  C   UNL     1      -6.037  -2.266   0.563  1.00  0.00    +0.165 C 
ATOM     16  O   UNL     1      -6.658  -2.102   1.648  1.00  0.00    -0.294 OA
ATOM     17  C   UNL     1      -6.574  -3.220  -0.459  1.00  0.00    +0.094 C 
ENDBRANCH   4  15
BRANCH   8  18
ATOM     18  C   UNL     1      -3.856   2.129  -0.262  1.00  0.00    +0.092 C 
ATOM     19  C   UNL     1      -4.846   2.575  -1.351  1.00  0.00    +0.025 C 
ATOM     20  C   UNL     1      -4.290   2.802   1.047  1.00  0.00    +0.025 C 
ATOM     21  C   UNL     1      -5.859   3.488  -0.670  1.00  0.00    +0.002 C 
ATOM     22  C   UNL     1      -5.225   3.928   0.640  1.00  0.00    +0.002 C 
ENDBRANCH   8  18
ENDBRANCH   1   3
BRANCH   1  23
ATOM     23  C   UNL     1       2.275   0.649  -0.860  1.00  0.00    +0.132 A 
ATOM     24  C   UNL     1       2.611  -0.159   0.237  1.00  0.00    +0.049 A 
ATOM     25  N   UNL     1       3.268   1.187  -1.618  1.00  0.00    -0.237 NA
ATOM     26  C   UNL     1       3.953  -0.431   0.507  1.00  0.00    +0.031 A 
ATOM     27  C   UNL     1       4.583   0.947  -1.368  1.00  0.00    +0.139 A 
ATOM     28  C   UNL     1       4.960   0.130  -0.293  1.00  0.00    +0.055 A 
BRANCH  28  29
ATOM     29  N   UNL     1       6.351  -0.119  -0.015  1.00  0.00    -0.368 N 
ATOM     30  C   UNL     1       6.786  -1.456   0.411  1.00  0.00    +0.132 C 
ATOM     31  C   UNL     1       7.248   1.013   0.251  1.00  0.00    +0.132 C 
ATOM     32  C   UNL     1       8.231  -1.701  -0.026  1.00  0.00    +0.102 C 
ATOM     33  C   UNL     1       8.677   0.662  -0.170  1.00  0.00    +0.102 C 
ATOM     34  N   UNL     1       9.093  -0.607   0.440  1.00  0.00    -0.313 NA
ATOM     35  H   UNL     1      10.069  -0.810   0.121  1.00  0.00    +0.122 HD
ENDBRANCH  28  29
ENDBRANCH   1  23
TORSDOF 5
