REMARK SMILES CC(=O)c1c(C)c2cnc(Nc3ccc(N4CCNCC4)cn3)nc2n(C2CCCC2)c1=O
REMARK SMILES IDX 11 1 10 3 5 4 4 5 7 6 32 7 8 8 25 9 33 10 26 11 9 12 24 13
REMARK SMILES IDX 6 14 2 15 3 16 1 17 27 18 28 19 31 20 29 21 30 22 12 23
REMARK SMILES IDX 23 24 13 25 22 26 14 27 15 28 16 29 17 30 21 31 18 32 20 33
REMARK SMILES IDX 19 34
REMARK H PARENT 11 2 19 35
ROOT
ATOM      1  N   UNL     1       0.993   0.336  -0.464  1.00  0.00    -0.309 N 
ATOM      2  H   UNL     1       0.775   1.295  -0.680  1.00  0.00    +0.171 HD
ENDROOT
BRANCH   1   3
ATOM      3  C   UNL     1      -0.130  -0.409  -0.159  1.00  0.00    +0.230 A 
ATOM      4  C   UNL     1      -3.715  -2.463   0.704  1.00  0.00    -0.022 C 
ATOM      5  C   UNL     1      -4.852  -1.738   0.735  1.00  0.00    +0.086 C 
ATOM      6  C   UNL     1      -2.457  -1.754   0.409  1.00  0.00    +0.040 A 
ATOM      7  C   UNL     1      -4.858  -0.277   0.422  1.00  0.00    +0.263 C 
ATOM      8  C   UNL     1      -1.207  -2.341   0.441  1.00  0.00    +0.127 A 
ATOM      9  C   UNL     1      -2.437  -0.411   0.077  1.00  0.00    +0.148 A 
ATOM     10  O   UNL     1      -5.921   0.338   0.503  1.00  0.00    -0.268 OA
ATOM     11  N   UNL     1      -3.662   0.313   0.038  1.00  0.00    -0.289 N 
ATOM     12  N   UNL     1      -0.053  -1.702   0.164  1.00  0.00    -0.221 NA
ATOM     13  N   UNL     1      -1.293   0.251  -0.207  1.00  0.00    -0.194 NA
ATOM     14  C   UNL     1      -3.640  -3.953   0.935  1.00  0.00    +0.046 C 
BRANCH   5  15
ATOM     15  C   UNL     1      -6.149  -2.390   1.095  1.00  0.00    +0.165 C 
ATOM     16  O   UNL     1      -6.243  -3.085   2.108  1.00  0.00    -0.294 OA
ATOM     17  C   UNL     1      -7.328  -2.181   0.180  1.00  0.00    +0.094 C 
ENDBRANCH   5  15
BRANCH  11  18
ATOM     18  C   UNL     1      -3.615   1.749  -0.287  1.00  0.00    +0.092 C 
ATOM     19  C   UNL     1      -3.861   2.655   0.930  1.00  0.00    +0.025 C 
ATOM     20  C   UNL     1      -4.627   2.203  -1.362  1.00  0.00    +0.025 C 
ATOM     21  C   UNL     1      -4.514   3.896   0.343  1.00  0.00    +0.002 C 
ATOM     22  C   UNL     1      -5.435   3.330  -0.726  1.00  0.00    +0.002 C 
ENDBRANCH  11  18
ENDBRANCH   1   3
BRANCH   1  23
ATOM     23  C   UNL     1       2.348   0.076  -0.532  1.00  0.00    +0.132 A 
ATOM     24  N   UNL     1       3.111   1.133  -0.874  1.00  0.00    -0.237 NA
ATOM     25  C   UNL     1       2.925  -1.158  -0.284  1.00  0.00    +0.049 A 
ATOM     26  C   UNL     1       4.458   0.953  -0.960  1.00  0.00    +0.139 A 
ATOM     27  C   UNL     1       4.315  -1.308  -0.378  1.00  0.00    +0.031 A 
ATOM     28  C   UNL     1       5.144  -0.234  -0.709  1.00  0.00    +0.055 A 
BRANCH  28  29
ATOM     29  N   UNL     1       6.525  -0.405  -0.815  1.00  0.00    -0.368 N 
ATOM     30  C   UNL     1       7.357   0.648  -1.436  1.00  0.00    +0.132 C 
ATOM     31  C   UNL     1       7.201  -1.047   0.338  1.00  0.00    +0.132 C 
ATOM     32  C   UNL     1       7.868   1.667  -0.390  1.00  0.00    +0.102 C 
ATOM     33  C   UNL     1       7.693   0.015   1.351  1.00  0.00    +0.102 C 
ATOM     34  N   UNL     1       8.574   1.040   0.748  1.00  0.00    -0.313 NA
ATOM     35  H   UNL     1       9.403   0.567   0.385  1.00  0.00    +0.122 HD
ENDBRANCH  28  29
ENDBRANCH   1  23
TORSDOF 5
