REMARK SMILES CC(=O)c1c(C)c2cnc(Nc3ccc(N4CCNCC4)cn3)nc2n1C1CCCC1
REMARK SMILES IDX 11 1 10 3 4 4 5 5 26 6 7 7 25 8 8 9 24 10 9 11 6 12 2 13
REMARK SMILES IDX 3 14 1 15 27 16 28 17 31 18 29 19 30 20 12 21 13 22 23 23
REMARK SMILES IDX 14 24 22 25 15 26 16 27 17 28 21 29 18 30 20 31 19 32
REMARK H PARENT 11 2 19 33
ROOT
ATOM      1  N   UNL     1       0.317   0.081  -1.120  1.00  0.00    -0.309 N 
ATOM      2  H   UNL     1      -0.086   0.179  -2.080  1.00  0.00    +0.171 HD
ENDROOT
BRANCH   1   3
ATOM      3  C   UNL     1      -0.613  -0.024  -0.032  1.00  0.00    +0.230 A 
ATOM      4  C   UNL     1      -4.616  -0.173   1.938  1.00  0.00    +0.090 A 
ATOM      5  C   UNL     1      -3.534  -0.348   2.808  1.00  0.00    -0.011 A 
ATOM      6  N   UNL     1      -4.177   0.009   0.658  1.00  0.00    -0.319 N 
ATOM      7  C   UNL     1      -2.409  -0.268   2.015  1.00  0.00    +0.041 A 
ATOM      8  C   UNL     1      -2.829  -0.048   0.739  1.00  0.00    +0.146 A 
ATOM      9  C   UNL     1      -1.052  -0.374   2.291  1.00  0.00    +0.127 A 
ATOM     10  N   UNL     1      -1.952   0.075  -0.289  1.00  0.00    -0.194 NA
ATOM     11  N   UNL     1      -0.179  -0.250   1.250  1.00  0.00    -0.221 NA
ATOM     12  C   UNL     1      -3.584  -0.610   4.281  1.00  0.00    +0.047 C 
BRANCH   4  13
ATOM     13  C   UNL     1      -6.029  -0.166   2.366  1.00  0.00    +0.176 C 
ATOM     14  O   UNL     1      -6.458  -1.098   3.100  1.00  0.00    -0.293 OA
ATOM     15  C   UNL     1      -6.940   0.973   2.033  1.00  0.00    +0.095 C 
ENDBRANCH   4  13
BRANCH   6  16
ATOM     16  C   UNL     1      -4.989   0.158  -0.565  1.00  0.00    +0.089 C 
ATOM     17  C   UNL     1      -4.694   1.474  -1.293  1.00  0.00    +0.025 C 
ATOM     18  C   UNL     1      -4.737  -0.969  -1.569  1.00  0.00    +0.025 C 
ATOM     19  C   UNL     1      -4.415   1.116  -2.751  1.00  0.00    +0.002 C 
ATOM     20  C   UNL     1      -4.870  -0.323  -2.935  1.00  0.00    +0.002 C 
ENDBRANCH   6  16
ENDBRANCH   1   3
BRANCH   1  21
ATOM     21  C   UNL     1       1.749   0.016  -0.992  1.00  0.00    +0.132 A 
ATOM     22  C   UNL     1       2.545  -0.073  -2.135  1.00  0.00    +0.049 A 
ATOM     23  N   UNL     1       2.347   0.052   0.230  1.00  0.00    -0.237 NA
ATOM     24  C   UNL     1       3.932  -0.138  -2.010  1.00  0.00    +0.031 A 
ATOM     25  C   UNL     1       3.696  -0.005   0.385  1.00  0.00    +0.139 A 
ATOM     26  C   UNL     1       4.550  -0.110  -0.739  1.00  0.00    +0.055 A 
BRANCH  26  27
ATOM     27  N   UNL     1       6.003  -0.178  -0.593  1.00  0.00    -0.368 N 
ATOM     28  C   UNL     1       6.849  -0.089  -1.806  1.00  0.00    +0.132 C 
ATOM     29  C   UNL     1       6.585  -0.173   0.769  1.00  0.00    +0.132 C 
ATOM     30  C   UNL     1       8.354  -0.216  -1.550  1.00  0.00    +0.102 C 
ATOM     31  C   UNL     1       8.100  -0.364   0.798  1.00  0.00    +0.102 C 
ATOM     32  N   UNL     1       8.725   0.399  -0.278  1.00  0.00    -0.313 NA
ATOM     33  H   UNL     1       9.762   0.304  -0.170  1.00  0.00    +0.122 HD
ENDBRANCH  26  27
ENDBRANCH   1  21
TORSDOF 5
