REMARK SMILES CC(=O)c1c(C)c2cnc(Nc3ccc(N4CCNCC4)cn3)nc2n(C2CCCC2)c1=O
REMARK SMILES IDX 11 1 10 3 5 4 4 5 7 6 32 7 8 8 25 9 33 10 26 11 9 12 24 13
REMARK SMILES IDX 6 14 2 15 3 16 1 17 27 18 28 19 31 20 29 21 30 22 12 23
REMARK SMILES IDX 23 24 13 25 22 26 14 27 15 28 16 29 17 30 21 31 18 32 20 33
REMARK SMILES IDX 19 34
REMARK H PARENT 11 2 19 35
ROOT
ATOM      1  N   UNL     1       0.911  -0.555   0.016  1.00  0.00    -0.309 N 
ATOM      2  H   UNL     1       0.708  -1.506  -0.245  1.00  0.00    +0.171 HD
ENDROOT
BRANCH   1   3
ATOM      3  C   UNL     1      -0.228   0.213   0.160  1.00  0.00    +0.230 A 
ATOM      4  C   UNL     1      -3.858   2.339   0.511  1.00  0.00    -0.022 C 
ATOM      5  C   UNL     1      -5.002   1.638   0.373  1.00  0.00    +0.086 C 
ATOM      6  C   UNL     1      -2.585   1.604   0.395  1.00  0.00    +0.040 A 
ATOM      7  C   UNL     1      -4.993   0.179   0.052  1.00  0.00    +0.263 C 
ATOM      8  C   UNL     1      -1.341   2.165   0.609  1.00  0.00    +0.127 A 
ATOM      9  C   UNL     1      -2.544   0.262   0.061  1.00  0.00    +0.148 A 
ATOM     10  O   UNL     1      -6.068  -0.414  -0.026  1.00  0.00    -0.268 OA
ATOM     11  N   UNL     1      -3.766  -0.435  -0.159  1.00  0.00    -0.289 N 
ATOM     12  N   UNL     1      -0.172   1.504   0.496  1.00  0.00    -0.221 NA
ATOM     13  N   UNL     1      -1.386  -0.423  -0.060  1.00  0.00    -0.194 NA
ATOM     14  C   UNL     1      -3.787   3.826   0.761  1.00  0.00    +0.046 C 
BRANCH   5  15
ATOM     15  C   UNL     1      -6.324   2.315   0.547  1.00  0.00    +0.165 C 
ATOM     16  O   UNL     1      -6.549   3.008   1.540  1.00  0.00    -0.294 OA
ATOM     17  C   UNL     1      -7.363   2.135  -0.530  1.00  0.00    +0.094 C 
ENDBRANCH   5  15
BRANCH  11  18
ATOM     18  C   UNL     1      -3.702  -1.871  -0.482  1.00  0.00    +0.092 C 
ATOM     19  C   UNL     1      -4.556  -2.300  -1.696  1.00  0.00    +0.025 C 
ATOM     20  C   UNL     1      -4.140  -2.775   0.681  1.00  0.00    +0.025 C 
ATOM     21  C   UNL     1      -5.471  -3.412  -1.190  1.00  0.00    +0.002 C 
ATOM     22  C   UNL     1      -4.727  -4.000  -0.003  1.00  0.00    +0.002 C 
ENDBRANCH  11  18
ENDBRANCH   1   3
BRANCH   1  23
ATOM     23  C   UNL     1       2.267  -0.323   0.145  1.00  0.00    +0.132 A 
ATOM     24  N   UNL     1       3.050  -1.392  -0.103  1.00  0.00    -0.237 NA
ATOM     25  C   UNL     1       2.826   0.892   0.506  1.00  0.00    +0.049 A 
ATOM     26  C   UNL     1       4.398  -1.240   0.006  1.00  0.00    +0.139 A 
ATOM     27  C   UNL     1       4.218   1.017   0.605  1.00  0.00    +0.031 A 
ATOM     28  C   UNL     1       5.065  -0.061   0.338  1.00  0.00    +0.055 A 
BRANCH  28  29
ATOM     29  N   UNL     1       6.456   0.072   0.455  1.00  0.00    -0.368 N 
ATOM     30  C   UNL     1       7.271  -1.161   0.411  1.00  0.00    +0.132 C 
ATOM     31  C   UNL     1       7.040   1.190  -0.325  1.00  0.00    +0.132 C 
ATOM     32  C   UNL     1       8.747  -0.864   0.763  1.00  0.00    +0.102 C 
ATOM     33  C   UNL     1       8.529   1.402   0.035  1.00  0.00    +0.102 C 
ATOM     34  N   UNL     1       9.352   0.182  -0.085  1.00  0.00    -0.313 NA
ATOM     35  H   UNL     1       9.314  -0.132  -1.055  1.00  0.00    +0.122 HD
ENDBRANCH  28  29
ENDBRANCH   1  23
TORSDOF 5
