REMARK SMILES C[C@]12CCCN1CC1=NNC(=O)c3cc(F)cc4[nH]c2c1c34
REMARK SMILES IDX 1 1 2 2 3 3 4 4 5 5 6 6 7 7 8 8 9 9 10 10 11 11 12 12 13 13
REMARK SMILES IDX 22 14 21 15 20 16 19 17 18 18 17 19 15 20 14 21 16 22
REMARK H PARENT 10 23 19 24
ROOT
ATOM      1  C   UNL     1      -2.113  -1.440  -1.825  1.00  0.00    +0.035 C 
ATOM      2  C   UNL     1      -1.845  -0.717  -0.501  1.00  0.00    +0.059 C 
ATOM      3  C   UNL     1      -2.697  -1.303   0.628  1.00  0.00    +0.030 C 
ATOM      4  C   UNL     1      -2.833  -0.173   1.637  1.00  0.00    +0.018 C 
ATOM      5  C   UNL     1      -2.601   1.106   0.842  1.00  0.00    +0.086 C 
ATOM      6  N   UNL     1      -2.342   0.679  -0.539  1.00  0.00    -0.287 NA
ATOM      7  C   UNL     1      -1.481   1.637  -1.276  1.00  0.00    +0.144 C 
ATOM      8  C   UNL     1      -0.005   1.613  -0.831  1.00  0.00    +0.085 C 
ATOM      9  N   UNL     1       0.707   2.687  -0.963  1.00  0.00    -0.175 NA
ATOM     10  N   UNL     1       2.026   2.858  -0.664  1.00  0.00    -0.243 N 
ATOM     11  C   UNL     1       3.069   2.079  -0.206  1.00  0.00    +0.272 C 
ATOM     12  O   UNL     1       4.175   2.618  -0.087  1.00  0.00    -0.267 OA
ATOM     13  C   UNL     1       2.963   0.657   0.156  1.00  0.00    +0.054 A 
ATOM     14  C   UNL     1       1.752  -0.028   0.070  1.00  0.00    +0.022 A 
ATOM     15  C   UNL     1       0.476   0.357  -0.341  1.00  0.00    +0.030 A 
ATOM     16  C   UNL     1      -0.374  -0.718  -0.193  1.00  0.00    +0.046 A 
ATOM     17  N   UNL     1       0.367  -1.776   0.262  1.00  0.00    -0.356 N 
ATOM     18  C   UNL     1       1.676  -1.374   0.441  1.00  0.00    +0.050 A 
ATOM     19  C   UNL     1       2.790  -2.083   0.897  1.00  0.00    +0.066 A 
ATOM     20  C   UNL     1       3.994  -1.383   0.972  1.00  0.00    +0.126 A 
ATOM     21  C   UNL     1       4.093  -0.043   0.614  1.00  0.00    +0.054 A 
ATOM     22  F   UNL     1       5.088  -2.024   1.405  1.00  0.00    -0.207 F 
ATOM     23  H   UNL     1       2.341   3.807  -0.852  1.00  0.00    +0.194 HD
ATOM     24  H   UNL     1       0.019  -2.707   0.453  1.00  0.00    +0.166 HD
ENDROOT
TORSDOF 0
