REMARK SMILES C[C@]12CCCN1CC1=NNC(=O)c3cc(F)cc4[nH]c2c1c34
REMARK SMILES IDX 1 1 2 2 3 3 4 4 5 5 6 6 7 7 8 8 9 9 10 10 11 11 12 12 13 13
REMARK SMILES IDX 22 14 21 15 20 16 19 17 18 18 17 19 15 20 14 21 16 22
REMARK H PARENT 10 23 19 24
ROOT
ATOM      1  C   UNL     1      -2.079   1.459   1.548  1.00  0.00    +0.035 C 
ATOM      2  C   UNL     1      -1.671   0.512   0.398  1.00  0.00    +0.059 C 
ATOM      3  C   UNL     1      -2.535   0.739  -0.844  1.00  0.00    +0.030 C 
ATOM      4  C   UNL     1      -3.767  -0.133  -0.628  1.00  0.00    +0.018 C 
ATOM      5  C   UNL     1      -3.430  -1.048   0.545  1.00  0.00    +0.086 C 
ATOM      6  N   UNL     1      -1.986  -0.892   0.800  1.00  0.00    -0.287 NA
ATOM      7  C   UNL     1      -1.247  -1.940   0.034  1.00  0.00    +0.144 C 
ATOM      8  C   UNL     1       0.274  -1.733   0.041  1.00  0.00    +0.085 C 
ATOM      9  N   UNL     1       1.054  -2.766   0.003  1.00  0.00    -0.175 NA
ATOM     10  N   UNL     1       2.415  -2.783  -0.068  1.00  0.00    -0.243 N 
ATOM     11  C   UNL     1       3.429  -1.861  -0.234  1.00  0.00    +0.272 C 
ATOM     12  O   UNL     1       4.584  -2.290  -0.323  1.00  0.00    -0.267 OA
ATOM     13  C   UNL     1       3.237  -0.403  -0.307  1.00  0.00    +0.054 A 
ATOM     14  C   UNL     1       1.975   0.172  -0.176  1.00  0.00    +0.022 A 
ATOM     15  C   UNL     1       0.701  -0.372  -0.008  1.00  0.00    +0.030 A 
ATOM     16  C   UNL     1      -0.206   0.657   0.119  1.00  0.00    +0.046 A 
ATOM     17  N   UNL     1       0.484   1.832  -0.037  1.00  0.00    -0.356 N 
ATOM     18  C   UNL     1       1.826   1.561  -0.210  1.00  0.00    +0.050 A 
ATOM     19  C   UNL     1       2.913   2.421  -0.386  1.00  0.00    +0.066 A 
ATOM     20  C   UNL     1       4.168   1.827  -0.523  1.00  0.00    +0.126 A 
ATOM     21  C   UNL     1       4.341   0.449  -0.484  1.00  0.00    +0.054 A 
ATOM     22  F   UNL     1       5.239   2.615  -0.693  1.00  0.00    -0.207 F 
ATOM     23  H   UNL     1       2.788  -3.729  -0.052  1.00  0.00    +0.194 HD
ATOM     24  H   UNL     1       0.086   2.762   0.002  1.00  0.00    +0.166 HD
ENDROOT
TORSDOF 0
