REMARK SMILES C[C@]12CCCN1CC1=NNC(=O)c3cc(F)cc4[nH]c2c1c34
REMARK SMILES IDX 1 1 2 2 3 3 4 4 5 5 6 6 7 7 8 8 9 9 10 10 11 11 12 12 13 13
REMARK SMILES IDX 22 14 21 15 20 16 19 17 18 18 17 19 15 20 14 21 16 22
REMARK H PARENT 10 23 19 24
ROOT
ATOM      1  C   UNL     1      -2.243  -0.307  -2.174  1.00  0.00    +0.035 C 
ATOM      2  C   UNL     1      -1.855  -0.352  -0.690  1.00  0.00    +0.059 C 
ATOM      3  C   UNL     1      -2.592  -1.481   0.039  1.00  0.00    +0.030 C 
ATOM      4  C   UNL     1      -2.711  -0.995   1.473  1.00  0.00    +0.018 C 
ATOM      5  C   UNL     1      -2.552   0.522   1.404  1.00  0.00    +0.086 C 
ATOM      6  N   UNL     1      -2.311   0.878  -0.002  1.00  0.00    -0.287 NA
ATOM      7  C   UNL     1      -1.466   2.089  -0.160  1.00  0.00    +0.144 C 
ATOM      8  C   UNL     1       0.001   1.841   0.097  1.00  0.00    +0.085 C 
ATOM      9  N   UNL     1       0.770   2.870   0.305  1.00  0.00    -0.175 NA
ATOM     10  N   UNL     1       2.173   2.921   0.442  1.00  0.00    -0.243 N 
ATOM     11  C   UNL     1       3.041   1.863   0.879  1.00  0.00    +0.272 C 
ATOM     12  O   UNL     1       4.006   2.162   1.634  1.00  0.00    -0.267 OA
ATOM     13  C   UNL     1       2.934   0.477   0.388  1.00  0.00    +0.054 A 
ATOM     14  C   UNL     1       1.737  -0.052  -0.077  1.00  0.00    +0.022 A 
ATOM     15  C   UNL     1       0.484   0.491  -0.158  1.00  0.00    +0.030 A 
ATOM     16  C   UNL     1      -0.354  -0.527  -0.559  1.00  0.00    +0.046 A 
ATOM     17  N   UNL     1       0.343  -1.666  -0.784  1.00  0.00    -0.356 N 
ATOM     18  C   UNL     1       1.617  -1.365  -0.470  1.00  0.00    +0.050 A 
ATOM     19  C   UNL     1       2.704  -2.234  -0.461  1.00  0.00    +0.066 A 
ATOM     20  C   UNL     1       3.939  -1.733  -0.018  1.00  0.00    +0.126 A 
ATOM     21  C   UNL     1       4.053  -0.392   0.412  1.00  0.00    +0.054 A 
ATOM     22  F   UNL     1       5.023  -2.545   0.013  1.00  0.00    -0.207 F 
ATOM     23  H   UNL     1       2.582   3.881   0.487  1.00  0.00    +0.194 HD
ATOM     24  H   UNL     1      -0.026  -2.590  -1.101  1.00  0.00    +0.166 HD
ENDROOT
TORSDOF 0
