REMARK SMILES C[C@]12CCCN1CC1=NNC(=O)c3cc(F)cc4[nH]c2c1c34
REMARK SMILES IDX 1 1 2 2 3 3 4 4 5 5 6 6 7 7 8 8 9 9 10 10 11 11 12 12 13 13
REMARK SMILES IDX 22 14 21 15 20 16 19 17 18 18 17 19 15 20 14 21 16 22
REMARK H PARENT 10 23 19 24
ROOT
ATOM      1  C   UNL     1      -1.868   0.355   1.993  1.00  0.00    +0.035 C 
ATOM      2  C   UNL     1      -1.608   0.525   0.483  1.00  0.00    +0.059 C 
ATOM      3  C   UNL     1      -2.470   1.636  -0.107  1.00  0.00    +0.030 C 
ATOM      4  C   UNL     1      -3.813   0.948  -0.396  1.00  0.00    +0.018 C 
ATOM      5  C   UNL     1      -3.519  -0.555  -0.400  1.00  0.00    +0.086 C 
ATOM      6  N   UNL     1      -2.073  -0.589  -0.358  1.00  0.00    -0.287 NA
ATOM      7  C   UNL     1      -1.425  -1.884  -0.121  1.00  0.00    +0.144 C 
ATOM      8  C   UNL     1       0.112  -1.750  -0.307  1.00  0.00    +0.085 C 
ATOM      9  N   UNL     1       0.800  -2.811  -0.590  1.00  0.00    -0.175 NA
ATOM     10  N   UNL     1       2.145  -2.906  -0.788  1.00  0.00    -0.243 N 
ATOM     11  C   UNL     1       3.231  -2.054  -0.803  1.00  0.00    +0.272 C 
ATOM     12  O   UNL     1       4.337  -2.544  -1.058  1.00  0.00    -0.267 OA
ATOM     13  C   UNL     1       3.176  -0.610  -0.529  1.00  0.00    +0.054 A 
ATOM     14  C   UNL     1       1.975   0.027  -0.221  1.00  0.00    +0.022 A 
ATOM     15  C   UNL     1       0.664  -0.434  -0.113  1.00  0.00    +0.030 A 
ATOM     16  C   UNL     1      -0.142   0.633   0.232  1.00  0.00    +0.046 A 
ATOM     17  N   UNL     1       0.644   1.748   0.322  1.00  0.00    -0.356 N 
ATOM     18  C   UNL     1       1.953   1.401   0.049  1.00  0.00    +0.050 A 
ATOM     19  C   UNL     1       3.112   2.181   0.019  1.00  0.00    +0.066 A 
ATOM     20  C   UNL     1       4.303   1.527  -0.294  1.00  0.00    +0.126 A 
ATOM     21  C   UNL     1       4.349   0.164  -0.563  1.00  0.00    +0.054 A 
ATOM     22  F   UNL     1       5.439   2.237  -0.334  1.00  0.00    -0.207 F 
ATOM     23  H   UNL     1       2.432  -3.857  -1.007  1.00  0.00    +0.194 HD
ATOM     24  H   UNL     1       0.328   2.681   0.551  1.00  0.00    +0.166 HD
ENDROOT
TORSDOF 0
