REMARK SMILES Nc1nc2[nH]c(CCc3ccc(C(=O)N[C@@H](CCC(=O)O)C(=O)O)cc3)cc2c(=O)[nH]1
REMARK SMILES IDX 13 1 14 2 15 3 12 5 9 6 10 7 26 8 11 9 25 10 8 11 7 12 6 13
REMARK SMILES IDX 2 14 3 15 31 16 4 17 29 18 5 19 28 20 30 21 27 22 1 25 16 28
REMARK SMILES IDX 17 29 18 30 19 31 20 32 21 33 22 35 23 36 24 37
REMARK H PARENT 15 4 31 23 5 24 1 26 1 27 21 34 24 38
ROOT
ATOM      1  C   UNL     1       3.482   1.799  -0.103  1.00  0.00    +0.251 C 
ATOM      2  O   UNL     1       3.713   2.992   0.239  1.00  0.00    -0.269 OA
ATOM      3  N   UNL     1       4.576   0.883  -0.284  1.00  0.00    -0.339 N 
ATOM      4  H   UNL     1       4.383  -0.056  -0.697  1.00  0.00    +0.164 HD
ENDROOT
BRANCH   1   5
ATOM      5  C   UNL     1       2.082   1.368  -0.336  1.00  0.00    +0.039 A 
ATOM      6  C   UNL     1      -0.589   0.578  -0.783  1.00  0.00    -0.048 A 
ATOM      7  C   UNL     1       0.370  -0.362  -0.378  1.00  0.00    +0.004 A 
ATOM      8  C   UNL     1      -0.214   1.920  -0.933  1.00  0.00    +0.004 A 
ATOM      9  C   UNL     1       1.695   0.028  -0.160  1.00  0.00    +0.014 A 
ATOM     10  C   UNL     1       1.110   2.313  -0.710  1.00  0.00    +0.014 A 
BRANCH   6  11
ATOM     11  C   UNL     1      -2.022   0.162  -0.989  1.00  0.00    +0.042 C 
BRANCH  11  12
ATOM     12  C   UNL     1      -2.846   0.423   0.276  1.00  0.00    +0.058 C 
BRANCH  12  13
ATOM     13  C   UNL     1      -4.239  -0.119   0.139  1.00  0.00    +0.018 A 
ATOM     14  C   UNL     1      -8.447  -1.111  -0.892  1.00  0.00    +0.202 A 
ATOM     15  N   UNL     1      -7.370  -0.383  -1.318  1.00  0.00    -0.197 NA
ATOM     16  N   UNL     1      -8.363  -1.869   0.253  1.00  0.00    -0.292 N 
ATOM     17  C   UNL     1      -6.228  -0.433  -0.593  1.00  0.00    +0.147 A 
ATOM     18  C   UNL     1      -7.213  -1.910   0.991  1.00  0.00    +0.261 A 
ATOM     19  N   UNL     1      -5.091   0.229  -0.857  1.00  0.00    -0.343 N 
ATOM     20  C   UNL     1      -6.123  -1.175   0.544  1.00  0.00    +0.084 A 
ATOM     21  O   UNL     1      -7.148  -2.594   2.050  1.00  0.00    -0.269 OA
ATOM     22  C   UNL     1      -4.851  -0.992   1.043  1.00  0.00    +0.039 A 
ATOM     23  H   UNL     1      -9.194  -2.418   0.570  1.00  0.00    +0.173 HD
ATOM     24  H   UNL     1      -4.913   0.883  -1.654  1.00  0.00    +0.168 HD
BRANCH  14  25
ATOM     25  N   UNL     1      -9.657  -1.086  -1.648  1.00  0.00    -0.369 N 
ATOM     26  H   UNL     1      -9.705  -0.558  -2.549  1.00  0.00    +0.159 HD
ATOM     27  H   UNL     1     -10.492  -1.630  -1.337  1.00  0.00    +0.159 HD
ENDBRANCH  14  25
ENDBRANCH  12  13
ENDBRANCH  11  12
ENDBRANCH   6  11
ENDBRANCH   1   5
BRANCH   3  28
ATOM     28  C   UNL     1       5.926   1.159   0.228  1.00  0.00    +0.192 C 
BRANCH  28  29
ATOM     29  C   UNL     1       6.076   0.648   1.679  1.00  0.00    +0.049 C 
BRANCH  29  30
ATOM     30  C   UNL     1       5.641  -0.811   1.912  1.00  0.00    +0.125 C 
BRANCH  30  31
ATOM     31  C   UNL     1       6.524  -1.795   1.211  1.00  0.00    +0.303 C 
ATOM     32  O   UNL     1       7.699  -1.994   1.619  1.00  0.00    -0.252 OA
BRANCH  31  33
ATOM     33  O   UNL     1       6.051  -2.478   0.094  1.00  0.00    -0.481 OA
ATOM     34  H   UNL     1       6.640  -3.140  -0.399  1.00  0.00    +0.296 HD
ENDBRANCH  31  33
ENDBRANCH  30  31
ENDBRANCH  29  30
ENDBRANCH  28  29
BRANCH  28  35
ATOM     35  C   UNL     1       6.992   0.602  -0.683  1.00  0.00    +0.326 C 
ATOM     36  O   UNL     1       6.687  -0.049  -1.720  1.00  0.00    -0.250 OA
BRANCH  35  37
ATOM     37  O   UNL     1       8.333   0.834  -0.388  1.00  0.00    -0.480 OA
ATOM     38  H   UNL     1       9.068   0.465  -0.981  1.00  0.00    +0.296 HD
ENDBRANCH  35  37
ENDBRANCH  28  35
ENDBRANCH   3  28
TORSDOF 12
