REMARK SMILES CN(C)C(=O)c1cc2cnc(Nc3ccc(N4CCNCC4)cn3)nc2n1C1CCCC1
REMARK SMILES IDX 12 1 11 3 6 4 7 5 27 6 8 7 26 8 9 9 25 10 10 11 4 12 2 13
REMARK SMILES IDX 5 14 1 15 3 16 28 17 29 18 32 19 30 20 31 21 13 22 24 23
REMARK SMILES IDX 14 24 23 25 15 26 16 27 17 28 18 29 22 30 19 31 21 32 20 33
REMARK H PARENT 12 2 20 34
ROOT
ATOM      1  N   UNL     1      -0.835  -0.458  -0.442  1.00  0.00    -0.309 N 
ATOM      2  H   UNL     1      -0.494  -1.152  -1.087  1.00  0.00    +0.171 HD
ENDROOT
BRANCH   1   3
ATOM      3  C   UNL     1       0.196   0.188   0.219  1.00  0.00    +0.230 A 
ATOM      4  C   UNL     1       4.495   1.026   1.164  1.00  0.00    +0.109 A 
ATOM      5  C   UNL     1       3.567   1.782   1.872  1.00  0.00    +0.045 A 
ATOM      6  N   UNL     1       3.771   0.178   0.336  1.00  0.00    -0.318 N 
ATOM      7  C   UNL     1       2.272   1.402   1.457  1.00  0.00    +0.038 A 
ATOM      8  C   UNL     1       2.423   0.410   0.508  1.00  0.00    +0.146 A 
ATOM      9  C   UNL     1       0.967   1.759   1.764  1.00  0.00    +0.127 A 
ATOM     10  N   UNL     1       1.426  -0.221  -0.134  1.00  0.00    -0.194 NA
ATOM     11  N   UNL     1      -0.060   1.145   1.134  1.00  0.00    -0.221 NA
BRANCH   4  12
ATOM     12  C   UNL     1       5.940   1.035   1.305  1.00  0.00    +0.270 C 
ATOM     13  N   UNL     1       6.585   2.272   1.265  1.00  0.00    -0.343 N 
ATOM     14  O   UNL     1       6.566  -0.010   1.475  1.00  0.00    -0.267 OA
ATOM     15  C   UNL     1       7.997   2.330   1.601  1.00  0.00    +0.146 C 
ATOM     16  C   UNL     1       6.007   3.491   0.718  1.00  0.00    +0.146 C 
ENDBRANCH   4  12
BRANCH   6  17
ATOM     17  C   UNL     1       4.334  -0.786  -0.598  1.00  0.00    +0.089 C 
ATOM     18  C   UNL     1       3.897  -2.243  -0.351  1.00  0.00    +0.025 C 
ATOM     19  C   UNL     1       4.019  -0.489  -2.074  1.00  0.00    +0.025 C 
ATOM     20  C   UNL     1       3.269  -2.713  -1.659  1.00  0.00    +0.002 C 
ATOM     21  C   UNL     1       3.942  -1.863  -2.723  1.00  0.00    +0.002 C 
ENDBRANCH   6  17
ENDBRANCH   1   3
BRANCH   1  22
ATOM     22  C   UNL     1      -2.213  -0.386  -0.415  1.00  0.00    +0.132 A 
ATOM     23  N   UNL     1      -2.842  -1.241  -1.247  1.00  0.00    -0.237 NA
ATOM     24  C   UNL     1      -2.940   0.484   0.382  1.00  0.00    +0.049 A 
ATOM     25  C   UNL     1      -4.203  -1.228  -1.274  1.00  0.00    +0.139 A 
ATOM     26  C   UNL     1      -4.340   0.470   0.333  1.00  0.00    +0.031 A 
ATOM     27  C   UNL     1      -5.029  -0.414  -0.499  1.00  0.00    +0.055 A 
BRANCH  27  28
ATOM     28  N   UNL     1      -6.431  -0.411  -0.549  1.00  0.00    -0.368 N 
ATOM     29  C   UNL     1      -7.083  -1.187  -1.626  1.00  0.00    +0.132 C 
ATOM     30  C   UNL     1      -7.096  -0.562   0.768  1.00  0.00    +0.132 C 
ATOM     31  C   UNL     1      -8.604  -0.915  -1.665  1.00  0.00    +0.102 C 
ATOM     32  C   UNL     1      -8.621  -0.327   0.652  1.00  0.00    +0.102 C 
ATOM     33  N   UNL     1      -9.277  -1.162  -0.374  1.00  0.00    -0.313 NA
ATOM     34  H   UNL     1      -9.136  -2.141  -0.125  1.00  0.00    +0.122 HD
ENDBRANCH  27  28
ENDBRANCH   1  22
TORSDOF 5
