REMARK SMILES CN(C)C(=O)c1cc2cnc(Nc3ccc(N4CCNCC4)cn3)nc2n1C1CCCC1
REMARK SMILES IDX 12 1 11 3 6 4 7 5 27 6 8 7 26 8 9 9 25 10 10 11 4 12 2 13
REMARK SMILES IDX 5 14 1 15 3 16 28 17 29 18 32 19 30 20 31 21 13 22 24 23
REMARK SMILES IDX 14 24 23 25 15 26 16 27 17 28 18 29 22 30 19 31 21 32 20 33
REMARK H PARENT 12 2 20 34
ROOT
ATOM      1  N   UNL     1      -0.836  -0.576  -0.303  1.00  0.00    -0.309 N 
ATOM      2  H   UNL     1      -0.496  -1.523  -0.273  1.00  0.00    +0.171 HD
ENDROOT
BRANCH   1   3
ATOM      3  C   UNL     1       0.195   0.347  -0.296  1.00  0.00    +0.230 A 
ATOM      4  C   UNL     1       4.496   1.605  -0.220  1.00  0.00    +0.109 A 
ATOM      5  C   UNL     1       3.569   2.640  -0.265  1.00  0.00    +0.045 A 
ATOM      6  N   UNL     1       3.770   0.420  -0.204  1.00  0.00    -0.318 N 
ATOM      7  C   UNL     1       2.273   2.079  -0.273  1.00  0.00    +0.038 A 
ATOM      8  C   UNL     1       2.422   0.706  -0.242  1.00  0.00    +0.146 A 
ATOM      9  C   UNL     1       0.969   2.550  -0.319  1.00  0.00    +0.127 A 
ATOM     10  N   UNL     1       1.425  -0.192  -0.253  1.00  0.00    -0.194 NA
ATOM     11  N   UNL     1      -0.059   1.671  -0.324  1.00  0.00    -0.221 NA
BRANCH   4  12
ATOM     12  C   UNL     1       5.945   1.699  -0.277  1.00  0.00    +0.270 C 
ATOM     13  N   UNL     1       6.568   2.632   0.554  1.00  0.00    -0.343 N 
ATOM     14  O   UNL     1       6.594   0.994  -1.047  1.00  0.00    -0.267 OA
ATOM     15  C   UNL     1       5.967   3.206   1.749  1.00  0.00    +0.146 C 
ATOM     16  C   UNL     1       7.985   2.888   0.366  1.00  0.00    +0.146 C 
ENDBRANCH   4  12
BRANCH   6  17
ATOM     17  C   UNL     1       4.338  -0.920  -0.154  1.00  0.00    +0.089 C 
ATOM     18  C   UNL     1       3.770  -1.839   0.949  1.00  0.00    +0.025 C 
ATOM     19  C   UNL     1       4.184  -1.692  -1.472  1.00  0.00    +0.025 C 
ATOM     20  C   UNL     1       3.212  -3.058   0.222  1.00  0.00    +0.002 C 
ATOM     21  C   UNL     1       4.046  -3.145  -1.046  1.00  0.00    +0.002 C 
ENDBRANCH   6  17
ENDBRANCH   1   3
BRANCH   1  22
ATOM     22  C   UNL     1      -2.214  -0.505  -0.341  1.00  0.00    +0.132 A 
ATOM     23  N   UNL     1      -2.845  -1.697  -0.323  1.00  0.00    -0.237 NA
ATOM     24  C   UNL     1      -2.941   0.674  -0.399  1.00  0.00    +0.049 A 
ATOM     25  C   UNL     1      -4.205  -1.706  -0.359  1.00  0.00    +0.139 A 
ATOM     26  C   UNL     1      -4.340   0.630  -0.430  1.00  0.00    +0.031 A 
ATOM     27  C   UNL     1      -5.031  -0.582  -0.394  1.00  0.00    +0.055 A 
BRANCH  27  28
ATOM     28  N   UNL     1      -6.432  -0.615  -0.438  1.00  0.00    -0.368 N 
ATOM     29  C   UNL     1      -7.103   0.214   0.593  1.00  0.00    +0.132 C 
ATOM     30  C   UNL     1      -7.084  -1.925  -0.653  1.00  0.00    +0.132 C 
ATOM     31  C   UNL     1      -8.626   0.298   0.336  1.00  0.00    +0.102 C 
ATOM     32  C   UNL     1      -8.603  -1.758  -0.883  1.00  0.00    +0.102 C 
ATOM     33  N   UNL     1      -9.282  -1.018   0.199  1.00  0.00    -0.313 NA
ATOM     34  H   UNL     1      -9.146  -1.531   1.070  1.00  0.00    +0.122 HD
ENDBRANCH  27  28
ENDBRANCH   1  22
TORSDOF 5
