REMARK SMILES CN(C)C(=O)c1cc2cnc(Nc3ccc(N4CCNCC4)cn3)nc2n1C1CCCC1
REMARK SMILES IDX 12 1 11 3 6 4 7 5 27 6 8 7 26 8 9 9 25 10 10 11 4 12 2 13
REMARK SMILES IDX 5 14 1 15 3 16 28 17 29 18 32 19 30 20 31 21 13 22 14 23
REMARK SMILES IDX 24 24 15 25 23 26 16 27 17 28 18 29 22 30 19 31 21 32 20 33
REMARK H PARENT 12 2 20 34
ROOT
ATOM      1  N   UNL     1       1.247  -3.735   0.049  1.00  0.00    -0.309 N 
ATOM      2  H   UNL     1       1.585  -4.726   0.045  1.00  0.00    +0.171 HD
ENDROOT
BRANCH   1   3
ATOM      3  C   UNL     1      -0.165  -3.515   0.193  1.00  0.00    +0.230 A 
ATOM      4  C   UNL     1      -4.023  -1.292   0.187  1.00  0.00    +0.109 A 
ATOM      5  C   UNL     1      -4.141  -2.643   0.518  1.00  0.00    +0.045 A 
ATOM      6  N   UNL     1      -2.727  -0.969  -0.113  1.00  0.00    -0.318 N 
ATOM      7  C   UNL     1      -2.860  -3.137   0.445  1.00  0.00    +0.038 A 
ATOM      8  C   UNL     1      -2.045  -2.115   0.070  1.00  0.00    +0.146 A 
ATOM      9  C   UNL     1      -2.330  -4.395   0.699  1.00  0.00    +0.127 A 
ATOM     10  N   UNL     1      -0.707  -2.285  -0.059  1.00  0.00    -0.194 NA
ATOM     11  N   UNL     1      -0.980  -4.558   0.564  1.00  0.00    -0.221 NA
BRANCH   4  12
ATOM     12  C   UNL     1      -5.172  -0.374   0.171  1.00  0.00    +0.270 C 
ATOM     13  N   UNL     1      -5.422   0.546   1.251  1.00  0.00    -0.343 N 
ATOM     14  O   UNL     1      -5.986  -0.446  -0.794  1.00  0.00    -0.267 OA
ATOM     15  C   UNL     1      -6.258   1.721   1.001  1.00  0.00    +0.146 C 
ATOM     16  C   UNL     1      -5.082   0.200   2.634  1.00  0.00    +0.146 C 
ENDBRANCH   4  12
BRANCH   6  17
ATOM     17  C   UNL     1      -2.114   0.316  -0.506  1.00  0.00    +0.089 C 
ATOM     18  C   UNL     1      -2.809   1.006  -1.674  1.00  0.00    +0.025 C 
ATOM     19  C   UNL     1      -2.063   1.326   0.639  1.00  0.00    +0.025 C 
ATOM     20  C   UNL     1      -2.510   2.483  -1.476  1.00  0.00    +0.002 C 
ATOM     21  C   UNL     1      -2.390   2.689   0.031  1.00  0.00    +0.002 C 
ENDBRANCH   6  17
ENDBRANCH   1   3
BRANCH   1  22
ATOM     22  C   UNL     1       2.207  -2.682  -0.147  1.00  0.00    +0.132 A 
ATOM     23  C   UNL     1       3.509  -2.985  -0.552  1.00  0.00    +0.049 A 
ATOM     24  N   UNL     1       1.869  -1.382   0.081  1.00  0.00    -0.237 NA
ATOM     25  C   UNL     1       4.434  -1.958  -0.732  1.00  0.00    +0.031 A 
ATOM     26  C   UNL     1       2.744  -0.359  -0.089  1.00  0.00    +0.139 A 
ATOM     27  C   UNL     1       4.074  -0.608  -0.502  1.00  0.00    +0.055 A 
BRANCH  27  28
ATOM     28  N   UNL     1       5.028   0.483  -0.683  1.00  0.00    -0.368 N 
ATOM     29  C   UNL     1       6.303   0.218  -1.388  1.00  0.00    +0.132 C 
ATOM     30  C   UNL     1       4.614   1.862  -0.327  1.00  0.00    +0.132 C 
ATOM     31  C   UNL     1       7.267   1.412  -1.465  1.00  0.00    +0.102 C 
ATOM     32  C   UNL     1       5.737   2.896  -0.415  1.00  0.00    +0.102 C 
ATOM     33  N   UNL     1       6.561   2.683  -1.602  1.00  0.00    -0.313 NA
ATOM     34  H   UNL     1       5.949   2.654  -2.451  1.00  0.00    +0.122 HD
ENDBRANCH  27  28
ENDBRANCH   1  22
TORSDOF 5
