REMARK SMILES CN(C)C(=O)c1cc2cnc(Nc3ccc(N4CCNCC4)cn3)nc2n1C1CCCC1
REMARK SMILES IDX 12 1 11 3 6 4 7 5 27 6 8 7 26 8 9 9 25 10 10 11 4 12 2 13
REMARK SMILES IDX 5 14 1 15 3 16 28 17 29 18 32 19 30 20 31 21 13 22 24 23
REMARK SMILES IDX 14 24 23 25 15 26 16 27 17 28 18 29 22 30 19 31 21 32 20 33
REMARK H PARENT 12 2 20 34
ROOT
ATOM      1  N   UNL     1       0.869   0.515   0.297  1.00  0.00    -0.309 N 
ATOM      2  H   UNL     1       0.562   1.466   0.420  1.00  0.00    +0.171 HD
ENDROOT
BRANCH   1   3
ATOM      3  C   UNL     1      -0.193  -0.371   0.233  1.00  0.00    +0.230 A 
ATOM      4  C   UNL     1      -4.531  -1.491   0.275  1.00  0.00    +0.109 A 
ATOM      5  C   UNL     1      -3.641  -2.547   0.116  1.00  0.00    +0.045 A 
ATOM      6  N   UNL     1      -3.766  -0.335   0.372  1.00  0.00    -0.318 N 
ATOM      7  C   UNL     1      -2.327  -2.027   0.114  1.00  0.00    +0.038 A 
ATOM      8  C   UNL     1      -2.430  -0.659   0.281  1.00  0.00    +0.146 A 
ATOM      9  C   UNL     1      -1.041  -2.534   0.008  1.00  0.00    +0.127 A 
ATOM     10  N   UNL     1      -1.402   0.202   0.347  1.00  0.00    -0.194 NA
ATOM     11  N   UNL     1       0.016  -1.692   0.064  1.00  0.00    -0.221 NA
BRANCH   4  12
ATOM     12  C   UNL     1      -5.976  -1.553   0.415  1.00  0.00    +0.270 C 
ATOM     13  N   UNL     1      -6.683  -2.346  -0.491  1.00  0.00    -0.343 N 
ATOM     14  O   UNL     1      -6.551  -0.945   1.316  1.00  0.00    -0.267 OA
ATOM     15  C   UNL     1      -8.093  -2.588  -0.246  1.00  0.00    +0.146 C 
ATOM     16  C   UNL     1      -6.179  -2.765  -1.791  1.00  0.00    +0.146 C 
ENDBRANCH   4  12
BRANCH   6  17
ATOM     17  C   UNL     1      -4.289   1.014   0.542  1.00  0.00    +0.089 C 
ATOM     18  C   UNL     1      -4.025   1.591   1.941  1.00  0.00    +0.025 C 
ATOM     19  C   UNL     1      -3.759   2.061  -0.460  1.00  0.00    +0.025 C 
ATOM     20  C   UNL     1      -3.862   3.086   1.708  1.00  0.00    +0.002 C 
ATOM     21  C   UNL     1      -3.113   3.152   0.388  1.00  0.00    +0.002 C 
ENDBRANCH   6  17
ENDBRANCH   1   3
BRANCH   1  22
ATOM     22  C   UNL     1       2.244   0.403   0.233  1.00  0.00    +0.132 A 
ATOM     23  N   UNL     1       2.914   1.569   0.335  1.00  0.00    -0.237 NA
ATOM     24  C   UNL     1       2.930  -0.791   0.082  1.00  0.00    +0.049 A 
ATOM     25  C   UNL     1       4.273   1.537   0.281  1.00  0.00    +0.139 A 
ATOM     26  C   UNL     1       4.330  -0.789   0.024  1.00  0.00    +0.031 A 
ATOM     27  C   UNL     1       5.059   0.398   0.107  1.00  0.00    +0.055 A 
BRANCH  27  28
ATOM     28  N   UNL     1       6.461   0.386   0.062  1.00  0.00    -0.368 N 
ATOM     29  C   UNL     1       7.036  -0.309  -1.115  1.00  0.00    +0.132 C 
ATOM     30  C   UNL     1       7.171   1.636   0.409  1.00  0.00    +0.132 C 
ATOM     31  C   UNL     1       8.568  -0.469  -0.974  1.00  0.00    +0.102 C 
ATOM     32  C   UNL     1       8.694   1.399   0.512  1.00  0.00    +0.102 C 
ATOM     33  N   UNL     1       9.278   0.798  -0.704  1.00  0.00    -0.313 NA
ATOM     34  H   UNL     1       9.106   1.430  -1.485  1.00  0.00    +0.122 HD
ENDBRANCH  27  28
ENDBRANCH   1  22
TORSDOF 5
