REMARK SMILES CN(C)C(=O)c1cc2cnc(Nc3ccc(N4CCNCC4)cn3)nc2n1C1CCCC1
REMARK SMILES IDX 12 1 11 3 6 4 7 5 27 6 8 7 26 8 9 9 25 10 10 11 4 12 2 13
REMARK SMILES IDX 5 14 1 15 3 16 28 17 29 18 32 19 30 20 31 21 13 22 24 23
REMARK SMILES IDX 14 24 23 25 15 26 16 27 17 28 18 29 22 30 19 31 21 32 20 33
REMARK H PARENT 12 2 20 34
ROOT
ATOM      1  N   UNL     1       0.839   0.476  -0.345  1.00  0.00    -0.309 N 
ATOM      2  H   UNL     1       0.612   0.933  -1.213  1.00  0.00    +0.171 HD
ENDROOT
BRANCH   1   3
ATOM      3  C   UNL     1      -0.282  -0.044   0.278  1.00  0.00    +0.230 A 
ATOM      4  C   UNL     1      -4.665  -0.909   0.657  1.00  0.00    +0.109 A 
ATOM      5  C   UNL     1      -3.867  -1.374   1.695  1.00  0.00    +0.045 A 
ATOM      6  N   UNL     1      -3.819  -0.264  -0.244  1.00  0.00    -0.318 N 
ATOM      7  C   UNL     1      -2.528  -1.028   1.416  1.00  0.00    +0.038 A 
ATOM      8  C   UNL     1      -2.522  -0.342   0.216  1.00  0.00    +0.146 A 
ATOM      9  C   UNL     1      -1.297  -1.194   2.035  1.00  0.00    +0.127 A 
ATOM     10  N   UNL     1      -1.432   0.161  -0.384  1.00  0.00    -0.194 NA
ATOM     11  N   UNL     1      -0.183  -0.700   1.451  1.00  0.00    -0.221 NA
BRANCH   4  12
ATOM     12  C   UNL     1      -6.114  -0.974   0.544  1.00  0.00    +0.270 C 
ATOM     13  N   UNL     1      -6.737  -2.184   0.853  1.00  0.00    -0.343 N 
ATOM     14  O   UNL     1      -6.767   0.012   0.207  1.00  0.00    -0.267 OA
ATOM     15  C   UNL     1      -8.186  -2.208   0.952  1.00  0.00    +0.146 C 
ATOM     16  C   UNL     1      -6.077  -3.481   0.832  1.00  0.00    +0.146 C 
ENDBRANCH   4  12
BRANCH   6  17
ATOM     17  C   UNL     1      -4.276   0.382  -1.474  1.00  0.00    +0.089 C 
ATOM     18  C   UNL     1      -3.343   0.291  -2.693  1.00  0.00    +0.025 C 
ATOM     19  C   UNL     1      -4.531   1.880  -1.294  1.00  0.00    +0.025 C 
ATOM     20  C   UNL     1      -2.739   1.684  -2.891  1.00  0.00    +0.002 C 
ATOM     21  C   UNL     1      -3.237   2.543  -1.737  1.00  0.00    +0.002 C 
ENDBRANCH   6  17
ENDBRANCH   1   3
BRANCH   1  22
ATOM     22  C   UNL     1       2.189   0.515  -0.060  1.00  0.00    +0.132 A 
ATOM     23  N   UNL     1       2.946   1.142  -0.984  1.00  0.00    -0.237 NA
ATOM     24  C   UNL     1       2.770  -0.028   1.075  1.00  0.00    +0.049 A 
ATOM     25  C   UNL     1       4.288   1.220  -0.772  1.00  0.00    +0.139 A 
ATOM     26  C   UNL     1       4.154   0.066   1.264  1.00  0.00    +0.031 A 
ATOM     27  C   UNL     1       4.973   0.692   0.323  1.00  0.00    +0.055 A 
BRANCH  27  28
ATOM     28  N   UNL     1       6.356   0.791   0.535  1.00  0.00    -0.368 N 
ATOM     29  C   UNL     1       7.035  -0.517   0.714  1.00  0.00    +0.132 C 
ATOM     30  C   UNL     1       7.122   1.699  -0.348  1.00  0.00    +0.132 C 
ATOM     31  C   UNL     1       8.495  -0.315   1.182  1.00  0.00    +0.102 C 
ATOM     32  C   UNL     1       8.573   1.857   0.161  1.00  0.00    +0.102 C 
ATOM     33  N   UNL     1       9.282   0.571   0.303  1.00  0.00    -0.313 NA
ATOM     34  H   UNL     1      10.191   0.740   0.732  1.00  0.00    +0.122 HD
ENDBRANCH  27  28
ENDBRANCH   1  22
TORSDOF 5
