REMARK SMILES CN1CCN(c2ccc(Nc3ncc(C(=O)N(C)C)c(N4CCCC4)n3)nc2)CC1
REMARK SMILES IDX 10 1 11 3 14 4 13 5 20 6 12 7 26 8 15 9 17 10 16 11 18 12
REMARK SMILES IDX 19 13 21 14 22 15 25 16 23 17 24 18 9 19 8 20 27 21 7 22
REMARK SMILES IDX 28 23 6 24 5 25 4 26 29 27 3 28 30 29 2 30 1 31
REMARK H PARENT 10 2
ROOT
ATOM      1  N   UNL     1      -0.172  -1.750  -0.157  1.00  0.00    -0.309 N 
ATOM      2  H   UNL     1      -0.385  -2.701  -0.536  1.00  0.00    +0.171 HD
ENDROOT
BRANCH   1   3
ATOM      3  C   UNL     1      -1.277  -0.930   0.249  1.00  0.00    +0.230 A 
ATOM      4  C   UNL     1      -3.430   0.615   1.037  1.00  0.00    +0.101 A 
ATOM      5  C   UNL     1      -2.146   0.851   1.539  1.00  0.00    +0.133 A 
ATOM      6  C   UNL     1      -3.607  -0.471   0.149  1.00  0.00    +0.147 A 
ATOM      7  N   UNL     1      -1.103   0.082   1.139  1.00  0.00    -0.220 NA
ATOM      8  N   UNL     1      -2.522  -1.204  -0.220  1.00  0.00    -0.195 NA
BRANCH   4   9
ATOM      9  C   UNL     1      -4.521   1.531   1.418  1.00  0.00    +0.258 C 
ATOM     10  N   UNL     1      -5.200   2.346   0.440  1.00  0.00    -0.345 N 
ATOM     11  O   UNL     1      -4.839   1.615   2.635  1.00  0.00    -0.269 OA
ATOM     12  C   UNL     1      -6.446   3.022   0.814  1.00  0.00    +0.146 C 
ATOM     13  C   UNL     1      -4.594   2.590  -0.874  1.00  0.00    +0.146 C 
ENDBRANCH   4   9
BRANCH   6  14
ATOM     14  N   UNL     1      -4.903  -0.843  -0.358  1.00  0.00    -0.356 N 
ATOM     15  C   UNL     1      -5.082  -1.376  -1.702  1.00  0.00    +0.118 C 
ATOM     16  C   UNL     1      -6.051  -1.106   0.497  1.00  0.00    +0.118 C 
ATOM     17  C   UNL     1      -6.408  -2.124  -1.685  1.00  0.00    +0.023 C 
ATOM     18  C   UNL     1      -7.127  -1.680  -0.416  1.00  0.00    +0.023 C 
ENDBRANCH   6  14
ENDBRANCH   1   3
BRANCH   1  19
ATOM     19  C   UNL     1       1.207  -1.384  -0.001  1.00  0.00    +0.132 A 
ATOM     20  C   UNL     1       1.629  -0.048  -0.099  1.00  0.00    +0.049 A 
ATOM     21  N   UNL     1       2.133  -2.362   0.185  1.00  0.00    -0.237 NA
ATOM     22  C   UNL     1       2.985   0.257   0.028  1.00  0.00    +0.031 A 
ATOM     23  C   UNL     1       3.460  -2.090   0.306  1.00  0.00    +0.139 A 
ATOM     24  C   UNL     1       3.922  -0.765   0.236  1.00  0.00    +0.055 A 
BRANCH  24  25
ATOM     25  N   UNL     1       5.326  -0.465   0.352  1.00  0.00    -0.368 N 
ATOM     26  C   UNL     1       6.316  -1.336  -0.300  1.00  0.00    +0.132 C 
ATOM     27  C   UNL     1       5.761   0.544   1.330  1.00  0.00    +0.132 C 
ATOM     28  C   UNL     1       7.573  -0.556  -0.754  1.00  0.00    +0.105 C 
ATOM     29  C   UNL     1       7.279   0.714   1.305  1.00  0.00    +0.105 C 
ATOM     30  N   UNL     1       7.718   0.763  -0.097  1.00  0.00    -0.303 NA
ATOM     31  C   UNL     1       9.110   1.232  -0.185  1.00  0.00    +0.105 C 
ENDBRANCH  24  25
ENDBRANCH   1  19
TORSDOF 5
