REMARK SMILES CN(C)C(=O)c1cc2cnc(Nc3ccc(N4CCNCC4)cn3)nc2n1C1CCCC1
REMARK SMILES IDX 12 1 11 3 6 4 7 5 27 6 8 7 26 8 9 9 25 10 10 11 4 12 2 13
REMARK SMILES IDX 5 14 1 15 3 16 28 17 29 18 32 19 30 20 31 21 13 22 24 23
REMARK SMILES IDX 14 24 23 25 15 26 16 27 17 28 18 29 22 30 19 31 21 32 20 33
REMARK H PARENT 12 2 20 34
ROOT
ATOM      1  N   UNL     1       1.234  -0.251   0.503  1.00  0.00    -0.309 N 
ATOM      2  H   UNL     1       0.977  -1.048   1.061  1.00  0.00    +0.171 HD
ENDROOT
BRANCH   1   3
ATOM      3  C   UNL     1       0.127   0.447   0.051  1.00  0.00    +0.230 A 
ATOM      4  C   UNL     1      -4.264   1.228  -0.374  1.00  0.00    +0.109 A 
ATOM      5  C   UNL     1      -3.427   2.133  -1.020  1.00  0.00    +0.045 A 
ATOM      6  N   UNL     1      -3.444   0.304   0.258  1.00  0.00    -0.318 N 
ATOM      7  C   UNL     1      -2.089   1.746  -0.793  1.00  0.00    +0.038 A 
ATOM      8  C   UNL     1      -2.123   0.614  -0.003  1.00  0.00    +0.146 A 
ATOM      9  C   UNL     1      -0.830   2.208  -1.146  1.00  0.00    +0.127 A 
ATOM     10  N   UNL     1      -1.053  -0.066   0.440  1.00  0.00    -0.194 NA
ATOM     11  N   UNL     1       0.268   1.544  -0.720  1.00  0.00    -0.221 NA
BRANCH   4  12
ATOM     12  C   UNL     1      -5.713   1.279  -0.308  1.00  0.00    +0.270 C 
ATOM     13  N   UNL     1      -6.407   1.354  -1.517  1.00  0.00    -0.343 N 
ATOM     14  O   UNL     1      -6.302   1.279   0.769  1.00  0.00    -0.267 OA
ATOM     15  C   UNL     1      -7.840   1.589  -1.481  1.00  0.00    +0.146 C 
ATOM     16  C   UNL     1      -5.846   1.024  -2.819  1.00  0.00    +0.146 C 
ENDBRANCH   4  12
BRANCH   6  17
ATOM     17  C   UNL     1      -3.833  -0.843   1.063  1.00  0.00    +0.089 C 
ATOM     18  C   UNL     1      -4.251  -0.490   2.495  1.00  0.00    +0.025 C 
ATOM     19  C   UNL     1      -4.942  -1.749   0.496  1.00  0.00    +0.025 C 
ATOM     20  C   UNL     1      -5.173  -1.631   2.896  1.00  0.00    +0.002 C 
ATOM     21  C   UNL     1      -5.956  -1.920   1.625  1.00  0.00    +0.002 C 
ENDBRANCH   6  17
ENDBRANCH   1   3
BRANCH   1  22
ATOM     22  C   UNL     1       2.601  -0.111   0.370  1.00  0.00    +0.132 A 
ATOM     23  N   UNL     1       3.332  -1.058   0.994  1.00  0.00    -0.237 NA
ATOM     24  C   UNL     1       3.224   0.908  -0.333  1.00  0.00    +0.049 A 
ATOM     25  C   UNL     1       4.688  -0.986   0.907  1.00  0.00    +0.139 A 
ATOM     26  C   UNL     1       4.622   0.951  -0.407  1.00  0.00    +0.031 A 
ATOM     27  C   UNL     1       5.413  -0.021   0.209  1.00  0.00    +0.055 A 
BRANCH  27  28
ATOM     28  N   UNL     1       6.813   0.040   0.139  1.00  0.00    -0.368 N 
ATOM     29  C   UNL     1       7.585  -0.865   1.017  1.00  0.00    +0.132 C 
ATOM     30  C   UNL     1       7.361   0.135  -1.236  1.00  0.00    +0.132 C 
ATOM     31  C   UNL     1       9.093  -0.529   0.972  1.00  0.00    +0.102 C 
ATOM     32  C   UNL     1       8.881   0.420  -1.211  1.00  0.00    +0.102 C 
ATOM     33  N   UNL     1       9.655  -0.535  -0.394  1.00  0.00    -0.313 NA
ATOM     34  H   UNL     1       9.524  -1.467  -0.787  1.00  0.00    +0.122 HD
ENDBRANCH  27  28
ENDBRANCH   1  22
TORSDOF 5
