REMARK SMILES CNCc1ccc(-c2[nH]c3cc(F)cc4c3c2CCNC4=O)cc1
REMARK SMILES IDX 4 1 5 2 6 3 7 4 23 5 24 6 3 7 2 8 1 9 8 11 17 12 9 13 16 14
REMARK SMILES IDX 10 15 15 16 11 17 14 18 12 19 13 21 18 22 21 24 20 25 22 26
REMARK SMILES IDX 19 28
REMARK H PARENT 2 10 9 20 20 27
REMARK Flexibility Score:   24.900
ROOT
ATOM      1  C   UNL     1       3.476  -0.140  -0.006  1.00  0.00    -0.034 A 
ATOM      2  C   UNL     1       2.820  -0.517   1.174  1.00  0.00    +0.006 A 
ATOM      3  C   UNL     1       1.437  -0.361   1.302  1.00  0.00    +0.010 A 
ATOM      4  C   UNL     1       0.685   0.177   0.252  1.00  0.00    -0.002 A 
ATOM      5  C   UNL     1       1.338   0.557  -0.926  1.00  0.00    +0.010 A 
ATOM      6  C   UNL     1       2.721   0.403  -1.054  1.00  0.00    +0.006 A 
ENDROOT
BRANCH   1   7
ATOM      7  C   UNL     1       4.972  -0.307  -0.134  1.00  0.00    +0.116 C 
BRANCH   7   8
ATOM      8  N   UNL     1       5.675   0.627   0.745  1.00  0.00    -0.316 NA
ATOM      9  C   UNL     1       7.117   0.508   0.588  1.00  0.00    +0.101 C 
ATOM     10  H   UNL     1       5.384   1.576   0.513  1.00  0.00    +0.122 HD
ENDBRANCH   7   8
ENDBRANCH   1   7
BRANCH   4  11
ATOM     11  C   UNL     1      -0.759   0.352   0.385  1.00  0.00    +0.050 A 
ATOM     12  C   UNL     1      -1.813  -0.074  -0.411  1.00  0.00    -0.012 A 
ATOM     13  N   UNL     1      -1.306   1.050   1.434  1.00  0.00    -0.354 N 
ATOM     14  C   UNL     1      -3.031   0.409   0.169  1.00  0.00    +0.016 A 
ATOM     15  C   UNL     1      -2.675   1.099   1.330  1.00  0.00    +0.050 A 
ATOM     16  C   UNL     1      -4.402   0.328  -0.177  1.00  0.00    +0.052 A 
ATOM     17  C   UNL     1      -3.611   1.707   2.173  1.00  0.00    +0.066 A 
ATOM     18  C   UNL     1      -5.350   0.944   0.662  1.00  0.00    +0.053 A 
ATOM     19  C   UNL     1      -4.950   1.611   1.810  1.00  0.00    +0.126 A 
ATOM     20  H   UNL     1      -0.769   1.490   2.168  1.00  0.00    +0.167 HD
ATOM     21  F   UNL     1      -5.877   2.184   2.590  1.00  0.00    -0.207 F 
BRANCH  12  22
ATOM     22  C   UNL     1      -1.729  -0.916  -1.642  1.00  0.00    +0.059 CG0
ATOM     23  G   UNL     1      -2.914  -1.868  -1.761  1.00  0.00    +0.000 G0
ENDBRANCH  12  22
BRANCH  16  24
ATOM     24  C   UNL     1      -4.903  -0.323  -1.413  1.00  0.00    +0.252 C 
ATOM     25  N   UNL     1      -4.145  -1.202  -2.141  1.00  0.00    -0.352 N 
ATOM     26  O   UNL     1      -6.042  -0.076  -1.809  1.00  0.00    -0.269 OA
ATOM     27  H   UNL     1      -4.668  -1.593  -2.917  1.00  0.00    +0.163 HD
BRANCH  25  28
ATOM     28  C   UNL     1      -2.914  -1.868  -1.761  1.00  0.00    +0.121 CG0
ATOM     29  G   UNL     1      -1.729  -0.916  -1.642  1.00  0.00    +0.000 G0
ENDBRANCH  25  28
ENDBRANCH  16  24
ENDBRANCH   4  11
TORSDOF 3
