REMARK SMILES CNCc1ccc(-c2[nH]c3cc(F)cc4c3c2CCNC4=O)cc1
REMARK SMILES IDX 4 1 5 2 6 3 7 4 23 5 24 6 3 7 2 8 1 9 8 11 17 12 9 13 16 14
REMARK SMILES IDX 10 15 15 16 11 17 14 18 12 19 13 21 18 22 21 24 20 25 22 26
REMARK SMILES IDX 19 28
REMARK H PARENT 2 10 9 20 20 27
REMARK Flexibility Score:   24.900
ROOT
ATOM      1  C   UNL     1       3.465  -0.296  -0.090  1.00  0.00    -0.034 A 
ATOM      2  C   UNL     1       2.656  -1.086   0.737  1.00  0.00    +0.006 A 
ATOM      3  C   UNL     1       1.285  -0.830   0.842  1.00  0.00    +0.010 A 
ATOM      4  C   UNL     1       0.700   0.220   0.127  1.00  0.00    -0.002 A 
ATOM      5  C   UNL     1       1.507   1.014  -0.696  1.00  0.00    +0.010 A 
ATOM      6  C   UNL     1       2.876   0.758  -0.803  1.00  0.00    +0.006 A 
ENDROOT
BRANCH   1   7
ATOM      7  C   UNL     1       4.948  -0.561  -0.207  1.00  0.00    +0.116 C 
BRANCH   7   8
ATOM      8  N   UNL     1       5.717   0.509   0.425  1.00  0.00    -0.316 NA
ATOM      9  C   UNL     1       7.145   0.234   0.363  1.00  0.00    +0.101 C 
ATOM     10  H   UNL     1       5.428   0.588   1.400  1.00  0.00    +0.122 HD
ENDBRANCH   7   8
ENDBRANCH   1   7
BRANCH   4  11
ATOM     11  C   UNL     1      -0.730   0.491   0.250  1.00  0.00    +0.050 A 
ATOM     12  C   UNL     1      -1.838  -0.328   0.076  1.00  0.00    -0.012 A 
ATOM     13  N   UNL     1      -1.201   1.732   0.603  1.00  0.00    -0.354 N 
ATOM     14  C   UNL     1      -3.010   0.445   0.361  1.00  0.00    +0.016 A 
ATOM     15  C   UNL     1      -2.572   1.734   0.676  1.00  0.00    +0.050 A 
ATOM     16  C   UNL     1      -4.400   0.177   0.382  1.00  0.00    +0.052 A 
ATOM     17  C   UNL     1      -3.446   2.776   1.004  1.00  0.00    +0.066 A 
ATOM     18  C   UNL     1      -5.285   1.220   0.719  1.00  0.00    +0.053 A 
ATOM     19  C   UNL     1      -4.806   2.486   1.015  1.00  0.00    +0.126 A 
ATOM     20  H   UNL     1      -0.613   2.528   0.807  1.00  0.00    +0.167 HD
ATOM     21  F   UNL     1      -5.674   3.458   1.328  1.00  0.00    -0.207 F 
BRANCH  12  22
ATOM     22  C   UNL     1      -1.842  -1.756  -0.362  1.00  0.00    +0.059 CG0
ATOM     23  G   UNL     1      -3.047  -2.077  -1.240  1.00  0.00    +0.000 G0
ENDBRANCH  12  22
BRANCH  16  24
ATOM     24  C   UNL     1      -4.987  -1.161   0.126  1.00  0.00    +0.252 C 
ATOM     25  N   UNL     1      -4.288  -2.164  -0.494  1.00  0.00    -0.352 N 
ATOM     26  O   UNL     1      -6.143  -1.394   0.476  1.00  0.00    -0.269 OA
ATOM     27  H   UNL     1      -4.864  -2.986  -0.639  1.00  0.00    +0.163 HD
BRANCH  25  28
ATOM     28  C   UNL     1      -3.047  -2.077  -1.240  1.00  0.00    +0.121 CG0
ATOM     29  G   UNL     1      -1.842  -1.756  -0.362  1.00  0.00    +0.000 G0
ENDBRANCH  25  28
ENDBRANCH  16  24
ENDBRANCH   4  11
TORSDOF 3
