REMARK SMILES CNCc1ccc(-c2cc3[nH]c2CCNC(=O)c2cccc(F)c2-3)cc1
REMARK SMILES IDX 4 1 5 2 6 3 7 4 25 5 26 6 3 7 2 8 1 9 8 11 9 12 12 13 10 14
REMARK SMILES IDX 11 15 13 17 24 19 22 20 18 21 21 22 19 23 20 24 23 25 16 26
REMARK SMILES IDX 15 27 17 28 14 30
REMARK H PARENT 2 10 11 16 15 29
REMARK Flexibility Score:   57.900
ROOT
ATOM      1  C   UNL     1       3.599   0.576   1.334  1.00  0.00    -0.034 A 
ATOM      2  C   UNL     1       2.591   1.503   1.027  1.00  0.00    +0.006 A 
ATOM      3  C   UNL     1       1.441   1.097   0.344  1.00  0.00    +0.009 A 
ATOM      4  C   UNL     1       1.280  -0.245  -0.040  1.00  0.00    -0.017 A 
ATOM      5  C   UNL     1       2.295  -1.169   0.259  1.00  0.00    +0.009 A 
ATOM      6  C   UNL     1       3.445  -0.761   0.940  1.00  0.00    +0.006 A 
ENDROOT
BRANCH   1   7
ATOM      7  C   UNL     1       4.853   1.018   2.052  1.00  0.00    +0.116 C 
BRANCH   7   8
ATOM      8  N   UNL     1       5.992   1.173   1.134  1.00  0.00    -0.316 NA
ATOM      9  C   UNL     1       5.836   2.341   0.264  1.00  0.00    +0.101 C 
ATOM     10  H   UNL     1       6.079   0.318   0.535  1.00  0.00    +0.122 HD
ENDBRANCH   7   8
ENDBRANCH   1   7
BRANCH   4  11
ATOM     11  C   UNL     1       0.068  -0.687  -0.766  1.00  0.00    +0.003 A 
ATOM     12  C   UNL     1      -0.696   0.103  -1.608  1.00  0.00    +0.037 A 
ATOM     13  C   UNL     1      -0.706  -1.808  -0.474  1.00  0.00    +0.025 A 
ATOM     14  C   UNL     1      -1.888  -0.571  -1.791  1.00  0.00    +0.050 A 
ATOM     15  N   UNL     1      -1.813  -1.792  -1.236  1.00  0.00    -0.358 N 
ATOM     16  H   UNL     1      -2.638  -2.416  -1.080  1.00  0.00    +0.166 HD
BRANCH  13  17
ATOM     17  C   UNL     1      -0.813  -2.388   0.912  1.00  0.00    +0.075 CG0
ATOM     18  G   UNL     1      -1.659  -1.492   1.870  1.00  0.00    +0.000 G0
ENDBRANCH  13  17
BRANCH  14  19
ATOM     19  C   UNL     1      -3.173   0.150  -1.817  1.00  0.00    +0.046 A 
ATOM     20  C   UNL     1      -3.546   0.866  -2.966  1.00  0.00    +0.133 A 
ATOM     21  C   UNL     1      -4.041   0.124  -0.685  1.00  0.00    +0.052 A 
ATOM     22  C   UNL     1      -4.781   1.516  -3.018  1.00  0.00    +0.040 A 
ATOM     23  C   UNL     1      -5.287   0.766  -0.771  1.00  0.00    +0.015 A 
ATOM     24  C   UNL     1      -5.651   1.460  -1.928  1.00  0.00    +0.004 A 
ATOM     25  F   UNL     1      -2.723   0.915  -4.044  1.00  0.00    -0.206 F 
BRANCH  21  26
ATOM     26  C   UNL     1      -3.684  -0.575   0.586  1.00  0.00    +0.252 C 
ATOM     27  N   UNL     1      -2.385  -0.407   1.184  1.00  0.00    -0.352 N 
ATOM     28  O   UNL     1      -4.533  -1.321   1.142  1.00  0.00    -0.269 OA
ATOM     29  H   UNL     1      -1.863   0.476   0.983  1.00  0.00    +0.163 HD
BRANCH  27  30
ATOM     30  C   UNL     1      -1.659  -1.492   1.870  1.00  0.00    +0.122 CG0
ATOM     31  G   UNL     1      -0.813  -2.388   0.912  1.00  0.00    +0.000 G0
ENDBRANCH  27  30
ENDBRANCH  21  26
ENDBRANCH  14  19
ENDBRANCH   4  11
TORSDOF 3
