REMARK SMILES Cn1cnc2c(F)c(Nc3ccc(Br)cc3Cl)c(C(=O)NOCCO)cc21
REMARK SMILES IDX 19 1 20 2 21 3 18 5 2 6 3 7 27 8 4 9 5 10 26 11 6 12 8 13
REMARK SMILES IDX 1 14 7 15 9 16 10 18 16 19 11 20 15 21 12 22 13 23 17 24
REMARK SMILES IDX 14 25 22 26 23 27 24 28 25 29
REMARK H PARENT 21 4 9 17 25 30
ROOT
ATOM      1  C   UNL     1       1.517   0.052  -0.471  1.00  0.00    +0.277 C 
ATOM      2  O   UNL     1       1.565   1.137  -1.046  1.00  0.00    -0.267 OA
ATOM      3  N   UNL     1       2.605  -0.577   0.110  1.00  0.00    -0.231 N 
ATOM      4  H   UNL     1       2.432  -1.178   0.909  1.00  0.00    +0.199 HD
ENDROOT
BRANCH   1   5
ATOM      5  C   UNL     1       0.219  -0.666  -0.340  1.00  0.00    +0.070 A 
ATOM      6  N   UNL     1      -1.388  -4.038  -0.522  1.00  0.00    -0.334 N 
ATOM      7  C   UNL     1      -2.733  -4.116  -0.303  1.00  0.00    +0.200 A 
ATOM      8  C   UNL     1      -1.009  -2.722  -0.401  1.00  0.00    +0.072 A 
ATOM      9  N   UNL     1      -3.249  -2.935  -0.055  1.00  0.00    -0.234 NA
ATOM     10  C   UNL     1      -2.195  -2.049  -0.119  1.00  0.00    +0.126 A 
ATOM     11  C   UNL     1       0.219  -2.066  -0.523  1.00  0.00    +0.045 A 
ATOM     12  C   UNL     1      -2.168  -0.650   0.044  1.00  0.00    +0.175 A 
ATOM     13  C   UNL     1      -0.961   0.070  -0.066  1.00  0.00    +0.090 A 
ATOM     14  C   UNL     1      -0.526  -5.150  -0.835  1.00  0.00    +0.151 C 
ATOM     15  F   UNL     1      -3.328  -0.007   0.257  1.00  0.00    -0.202 F 
BRANCH  13  16
ATOM     16  N   UNL     1      -0.874   1.466   0.150  1.00  0.00    -0.351 N 
ATOM     17  H   UNL     1      -0.138   1.914  -0.412  1.00  0.00    +0.167 HD
BRANCH  16  18
ATOM     18  C   UNL     1      -1.644   2.392   0.883  1.00  0.00    +0.057 A 
ATOM     19  C   UNL     1      -1.642   3.757   0.525  1.00  0.00    +0.065 A 
ATOM     20  C   UNL     1      -2.444   2.008   1.968  1.00  0.00    +0.029 A 
ATOM     21  C   UNL     1      -2.408   4.698   1.219  1.00  0.00    +0.038 A 
ATOM     22  C   UNL     1      -3.214   2.944   2.667  1.00  0.00    +0.018 A 
ATOM     23  C   UNL     1      -3.193   4.283   2.288  1.00  0.00    +0.019 A 
ATOM     24 Cl   UNL     1      -0.675   4.321  -0.798  1.00  0.00    -0.082 Cl
ATOM     25 Br   UNL     1      -4.234   5.543   3.236  1.00  0.00    -0.051 Br
ENDBRANCH  16  18
ENDBRANCH  13  16
ENDBRANCH   1   5
BRANCH   3  26
ATOM     26  O   UNL     1       3.715   0.292   0.278  1.00  0.00    -0.271 OA
BRANCH  26  27
ATOM     27  C   UNL     1       4.723  -0.026  -0.693  1.00  0.00    +0.222 C 
BRANCH  27  28
ATOM     28  C   UNL     1       4.937   1.174  -1.611  1.00  0.00    +0.187 C 
BRANCH  28  29
ATOM     29  O   UNL     1       3.873   1.292  -2.551  1.00  0.00    -0.394 OA
ATOM     30  H   UNL     1       3.050   1.425  -2.027  1.00  0.00    +0.210 HD
ENDBRANCH  28  29
ENDBRANCH  27  28
ENDBRANCH  26  27
ENDBRANCH   3  26
TORSDOF 7
