REMARK SMILES NC(=O)c1c(OCC(O)CO)cc(F)c(Nc2ccc(I)cc2F)c1Cl
REMARK SMILES IDX 6 1 5 2 4 3 25 4 15 5 12 6 13 7 26 8 14 9 2 10 1 11 3 12
REMARK SMILES IDX 16 15 17 17 18 18 23 19 19 20 22 21 20 22 24 23 21 24 7 25
REMARK SMILES IDX 8 26 9 27 10 29 11 30
REMARK H PARENT 1 13 1 14 16 16 9 28 11 31
ROOT
ATOM      1  O   UNL     1       2.578  -0.218   0.935  1.00  0.00    -0.490 OA
ENDROOT
BRANCH   1   2
ATOM      2  C   UNL     1       1.256  -0.092   0.468  1.00  0.00    +0.136 A 
ATOM      3  C   UNL     1       0.389  -1.201   0.575  1.00  0.00    +0.102 A 
ATOM      4  C   UNL     1      -0.937  -1.108   0.090  1.00  0.00    +0.084 A 
ATOM      5  C   UNL     1      -1.396   0.102  -0.471  1.00  0.00    +0.095 A 
ATOM      6  C   UNL     1       0.784   1.099  -0.113  1.00  0.00    +0.088 A 
ATOM      7  C   UNL     1      -0.523   1.188  -0.587  1.00  0.00    +0.151 A 
ATOM      8 Cl   UNL     1      -2.026  -2.498   0.177  1.00  0.00    -0.081 Cl
ATOM      9  F   UNL     1      -0.952   2.351  -1.140  1.00  0.00    -0.204 F 
BRANCH   3  10
ATOM     10  C   UNL     1       0.888  -2.459   1.176  1.00  0.00    +0.254 C 
ATOM     11  N   UNL     1       1.546  -2.450   2.444  1.00  0.00    -0.365 N 
ATOM     12  O   UNL     1       0.738  -3.552   0.566  1.00  0.00    -0.269 OA
ATOM     13  H   UNL     1       1.926  -3.336   2.846  1.00  0.00    +0.159 HD
ATOM     14  H   UNL     1       1.618  -1.572   3.004  1.00  0.00    +0.159 HD
ENDBRANCH   3  10
BRANCH   5  15
ATOM     15  N   UNL     1      -2.739   0.237  -0.959  1.00  0.00    -0.349 N 
ATOM     16  H   UNL     1      -2.862   0.541  -1.952  1.00  0.00    +0.167 HD
BRANCH  15  17
ATOM     17  C   UNL     1      -3.917   0.054  -0.152  1.00  0.00    +0.075 A 
ATOM     18  C   UNL     1      -5.133  -0.252  -0.784  1.00  0.00    +0.030 A 
ATOM     19  C   UNL     1      -3.893   0.203   1.252  1.00  0.00    +0.147 A 
ATOM     20  C   UNL     1      -6.297  -0.437  -0.033  1.00  0.00    +0.017 A 
ATOM     21  C   UNL     1      -5.063   0.017   1.997  1.00  0.00    +0.056 A 
ATOM     22  C   UNL     1      -6.262  -0.307   1.357  1.00  0.00    +0.016 A 
ATOM     23  F   UNL     1      -2.757   0.557   1.903  1.00  0.00    -0.205 F 
ATOM     24  I   UNL     1      -8.020  -0.585   2.488  1.00  0.00    -0.044 I 
ENDBRANCH  15  17
ENDBRANCH   5  15
ENDBRANCH   1   2
BRANCH   1  25
ATOM     25  C   UNL     1       3.617   0.750   0.786  1.00  0.00    +0.263 C 
BRANCH  25  26
ATOM     26  C   UNL     1       4.159   0.751  -0.652  1.00  0.00    +0.177 C 
BRANCH  26  27
ATOM     27  O   UNL     1       4.686  -0.516  -0.949  1.00  0.00    -0.387 OA
ATOM     28  H   UNL     1       4.772  -0.567  -1.937  1.00  0.00    +0.211 HD
ENDBRANCH  26  27
BRANCH  26  29
ATOM     29  C   UNL     1       5.235   1.833  -0.839  1.00  0.00    +0.191 C 
BRANCH  29  30
ATOM     30  O   UNL     1       6.336   1.605   0.000  1.00  0.00    -0.394 OA
ATOM     31  H   UNL     1       6.887   0.904  -0.435  1.00  0.00    +0.210 HD
ENDBRANCH  29  30
ENDBRANCH  26  29
ENDBRANCH  25  26
ENDBRANCH   1  25
TORSDOF 9
