REMARK SMILES CCc1c2c(nc3ccc(O)cc13)-c1cc3c(c(=O)n1C2)COC(=O)[C@]3(O)CC
REMARK SMILES IDX 3 1 4 2 21 3 20 4 14 5 15 6 16 7 17 8 18 9 19 10 22 11 23 12
REMARK SMILES IDX 24 13 25 14 26 15 5 16 6 17 7 18 13 19 12 20 10 21 9 22 8 23
REMARK SMILES IDX 2 24 1 25 11 26 28 28 29 29 27 30
REMARK H PARENT 11 27 27 31
ROOT
ATOM      1  C   UNL     1       3.158   0.315   0.402  1.00  0.00    -0.031 A 
ATOM      2  C   UNL     1       1.795   0.406   0.646  1.00  0.00    +0.004 A 
ATOM      3  C   UNL     1       1.034   1.054   1.767  1.00  0.00    +0.164 C 
ATOM      4  N   UNL     1      -0.361   0.781   1.410  1.00  0.00    -0.302 N 
ATOM      5  C   UNL     1      -0.447   0.070   0.231  1.00  0.00    +0.071 C 
ATOM      6  C   UNL     1      -1.628  -0.277  -0.290  1.00  0.00    +0.036 C 
ATOM      7  C   UNL     1      -2.851   0.095   0.409  1.00  0.00    +0.009 C 
ATOM      8  C   UNL     1      -2.767   0.793   1.564  1.00  0.00    +0.062 C 
ATOM      9  C   UNL     1      -1.445   1.196   2.137  1.00  0.00    +0.258 C 
ATOM     10  O   UNL     1      -1.367   1.847   3.173  1.00  0.00    -0.269 OA
ATOM     11  C   UNL     1      -3.990   1.195   2.311  1.00  0.00    +0.275 C 
ATOM     12  O   UNL     1      -5.058   0.233   2.172  1.00  0.00    -0.458 OA
ATOM     13  C   UNL     1      -5.116  -0.600   1.099  1.00  0.00    +0.343 C 
ATOM     14  O   UNL     1      -5.867  -1.570   1.118  1.00  0.00    -0.248 OA
ATOM     15  C   UNL     1      -4.244  -0.202  -0.133  1.00  0.00    +0.187 C 
ATOM     16  C   UNL     1       0.906  -0.170  -0.254  1.00  0.00    +0.093 A 
ATOM     17  N   UNL     1       1.229  -0.828  -1.372  1.00  0.00    -0.246 NA
ATOM     18  C   UNL     1       2.544  -0.918  -1.629  1.00  0.00    +0.072 A 
ATOM     19  C   UNL     1       3.558  -0.365  -0.785  1.00  0.00    +0.007 A 
ATOM     20  C   UNL     1       4.907  -0.523  -1.177  1.00  0.00    +0.056 A 
ATOM     21  C   UNL     1       5.241  -1.199  -2.345  1.00  0.00    +0.116 A 
ATOM     22  C   UNL     1       4.257  -1.736  -3.156  1.00  0.00    +0.048 A 
ATOM     23  C   UNL     1       2.919  -1.587  -2.786  1.00  0.00    +0.033 A 
ENDROOT
BRANCH   1  24
ATOM     24  C   UNL     1       4.135   0.950   1.361  1.00  0.00    +0.033 C 
ATOM     25  C   UNL     1       4.528   2.356   0.930  1.00  0.00    +0.009 C 
ENDBRANCH   1  24
BRANCH  21  26
ATOM     26  O   UNL     1       6.562  -1.311  -2.658  1.00  0.00    -0.508 OA
ATOM     27  H   UNL     1       6.647  -1.803  -3.492  1.00  0.00    +0.293 HD
ENDBRANCH  21  26
BRANCH  15  28
ATOM     28  C   UNL     1      -4.302  -1.299  -1.226  1.00  0.00    +0.049 C 
ATOM     29  C   UNL     1      -5.649  -1.453  -1.935  1.00  0.00    +0.008 C 
ENDBRANCH  15  28
BRANCH  15  30
ATOM     30  O   UNL     1      -4.711   1.033  -0.695  1.00  0.00    -0.374 OA
ATOM     31  H   UNL     1      -5.660   0.927  -0.885  1.00  0.00    +0.212 HD
ENDBRANCH  15  30
TORSDOF 4
