REMARK SMILES CCC1(O)C(=O)OCc2c1cc1n(c2=O)Cc2cc3cc(O)ccc3nc2-1
REMARK SMILES IDX 3 1 5 2 6 3 7 4 8 5 9 6 10 7 11 8 12 9 27 10 26 11 25 12
REMARK SMILES IDX 24 13 23 14 21 15 20 16 19 17 18 18 17 19 16 20 13 21 14 22
REMARK SMILES IDX 15 23 2 24 1 25 4 26 22 28
REMARK H PARENT 4 27 22 29
ROOT
ATOM      1  C   UNL     1      -3.697   0.016   0.254  1.00  0.00    +0.187 C 
ATOM      2  C   UNL     1      -4.613   0.879   1.114  1.00  0.00    +0.343 C 
ATOM      3  O   UNL     1      -5.522   0.381   1.827  1.00  0.00    -0.248 OA
ATOM      4  O   UNL     1      -4.467   2.268   1.101  1.00  0.00    -0.458 OA
ATOM      5  C   UNL     1      -3.520   2.910   0.255  1.00  0.00    +0.275 C 
ATOM      6  C   UNL     1      -2.239   2.117   0.228  1.00  0.00    +0.062 A 
ATOM      7  C   UNL     1      -2.308   0.693   0.255  1.00  0.00    +0.009 A 
ATOM      8  C   UNL     1      -1.097  -0.039   0.183  1.00  0.00    +0.036 A 
ATOM      9  C   UNL     1       0.103   0.660   0.109  1.00  0.00    +0.071 A 
ATOM     10  C   UNL     1       1.444   0.139   0.027  1.00  0.00    +0.092 A 
ATOM     11  N   UNL     1       1.868  -1.149   0.019  1.00  0.00    -0.246 NA
ATOM     12  C   UNL     1       3.207  -1.407  -0.068  1.00  0.00    +0.071 A 
ATOM     13  C   UNL     1       3.664  -2.729  -0.078  1.00  0.00    +0.033 A 
ATOM     14  C   UNL     1       5.034  -2.996  -0.167  1.00  0.00    +0.048 A 
ATOM     15  C   UNL     1       5.958  -1.949  -0.247  1.00  0.00    +0.116 A 
ATOM     16  C   UNL     1       5.515  -0.618  -0.239  1.00  0.00    +0.056 A 
ATOM     17  C   UNL     1       4.144  -0.334  -0.150  1.00  0.00    +0.004 A 
ATOM     18  C   UNL     1       3.678   0.996  -0.140  1.00  0.00    +0.018 A 
ATOM     19  C   UNL     1       2.305   1.204  -0.049  1.00  0.00    +0.000 A 
ATOM     20  C   UNL     1       1.527   2.487  -0.020  1.00  0.00    +0.164 C 
ATOM     21  N   UNL     1       0.142   2.008   0.081  1.00  0.00    -0.302 N 
ATOM     22  C   UNL     1      -0.987   2.763   0.128  1.00  0.00    +0.258 A 
ATOM     23  O   UNL     1      -0.908   4.021   0.079  1.00  0.00    -0.269 OA
ENDROOT
BRANCH   1  24
ATOM     24  C   UNL     1      -3.655  -1.466   0.760  1.00  0.00    +0.049 C 
ATOM     25  C   UNL     1      -4.990  -2.223   0.671  1.00  0.00    +0.008 C 
ENDBRANCH   1  24
BRANCH   1  26
ATOM     26  O   UNL     1      -4.203   0.046  -1.059  1.00  0.00    -0.374 OA
ATOM     27  H   UNL     1      -3.578  -0.467  -1.636  1.00  0.00    +0.212 HD
ENDBRANCH   1  26
BRANCH  15  28
ATOM     28  O   UNL     1       7.318  -2.241  -0.335  1.00  0.00    -0.508 OA
ATOM     29  H   UNL     1       8.015  -1.507  -0.395  1.00  0.00    +0.293 HD
ENDBRANCH  15  28
TORSDOF 3
