REMARK SMILES CCc1c2c(nc3ccc(O)cc13)-c1cc3c(c(=O)n1C2)COC(=O)C3(O)CC
REMARK SMILES IDX 3 1 4 2 5 3 6 4 7 5 8 6 9 7 10 8 12 9 13 10 14 11 15 12
REMARK SMILES IDX 16 13 17 14 18 15 19 16 20 17 21 18 22 19 23 20 24 21 25 22
REMARK SMILES IDX 26 23 2 24 1 25 11 26 27 28 28 30 29 31
REMARK H PARENT 11 27 27 29
ROOT
ATOM      1  C   UNL     1       3.009   0.128   0.335  1.00  0.00    -0.031 A 
ATOM      2  C   UNL     1       1.732  -0.355   0.014  1.00  0.00    +0.004 A 
ATOM      3  C   UNL     1       0.621   0.429   0.192  1.00  0.00    +0.093 A 
ATOM      4  N   UNL     1       0.683   1.692   0.670  1.00  0.00    -0.246 NA
ATOM      5  C   UNL     1       1.895   2.227   0.992  1.00  0.00    +0.072 A 
ATOM      6  C   UNL     1       1.954   3.537   1.479  1.00  0.00    +0.033 A 
ATOM      7  C   UNL     1       3.182   4.115   1.800  1.00  0.00    +0.048 A 
ATOM      8  C   UNL     1       4.367   3.390   1.634  1.00  0.00    +0.116 A 
ATOM      9  C   UNL     1       4.327   2.078   1.150  1.00  0.00    +0.056 A 
ATOM     10  C   UNL     1       3.096   1.467   0.826  1.00  0.00    +0.007 A 
ATOM     11  C   UNL     1      -0.533  -0.322  -0.229  1.00  0.00    +0.071 A 
ATOM     12  C   UNL     1      -1.870   0.059  -0.217  1.00  0.00    +0.036 A 
ATOM     13  C   UNL     1      -2.834  -0.862  -0.676  1.00  0.00    +0.009 A 
ATOM     14  C   UNL     1      -2.411  -2.138  -1.137  1.00  0.00    +0.062 A 
ATOM     15  C   UNL     1      -1.038  -2.468  -1.103  1.00  0.00    +0.258 A 
ATOM     16  O   UNL     1      -0.635  -3.603  -1.477  1.00  0.00    -0.269 OA
ATOM     17  N   UNL     1      -0.147  -1.541  -0.657  1.00  0.00    -0.302 N 
ATOM     18  C   UNL     1       1.309  -1.689  -0.546  1.00  0.00    +0.164 C 
ATOM     19  C   UNL     1      -3.443  -3.138  -1.590  1.00  0.00    +0.275 C 
ATOM     20  O   UNL     1      -4.546  -2.479  -2.208  1.00  0.00    -0.458 OA
ATOM     21  C   UNL     1      -5.050  -1.269  -1.727  1.00  0.00    +0.343 C 
ATOM     22  O   UNL     1      -6.128  -0.819  -2.201  1.00  0.00    -0.248 OA
ATOM     23  C   UNL     1      -4.324  -0.516  -0.630  1.00  0.00    +0.187 C 
ENDROOT
BRANCH   1  24
ATOM     24  C   UNL     1       4.220  -0.750   0.104  1.00  0.00    +0.033 C 
ATOM     25  C   UNL     1       4.867  -0.443  -1.243  1.00  0.00    +0.009 C 
ENDBRANCH   1  24
BRANCH   8  26
ATOM     26  O   UNL     1       5.597   3.967   1.946  1.00  0.00    -0.508 OA
ATOM     27  H   UNL     1       5.663   4.914   2.299  1.00  0.00    +0.293 HD
ENDBRANCH   8  26
BRANCH  23  28
ATOM     28  O   UNL     1      -4.519   0.869  -0.815  1.00  0.00    -0.374 OA
ATOM     29  H   UNL     1      -4.128   1.116  -1.695  1.00  0.00    +0.212 HD
ENDBRANCH  23  28
BRANCH  23  30
ATOM     30  C   UNL     1      -4.942  -0.934   0.726  1.00  0.00    +0.049 C 
ATOM     31  C   UNL     1      -4.352  -0.195   1.930  1.00  0.00    +0.008 C 
ENDBRANCH  23  30
TORSDOF 4
