REMARK SMILES CCc1c2c(nc3ccc(O)cc13)-c1cc3c(c(=O)n1C2)COC(=O)[C@]3(O)CC
REMARK SMILES IDX 3 1 4 2 21 3 20 4 14 5 15 6 16 7 17 8 18 9 19 10 22 11 23 12
REMARK SMILES IDX 24 13 25 14 26 15 5 16 6 17 7 18 13 19 12 20 10 21 9 22 8 23
REMARK SMILES IDX 2 24 1 25 11 26 28 28 29 29 27 30
REMARK H PARENT 11 27 27 31
ROOT
ATOM      1  C   UNL     1      -3.025  -0.515  -0.524  1.00  0.00    -0.031 A 
ATOM      2  C   UNL     1      -1.653  -0.430  -0.717  1.00  0.00    +0.004 A 
ATOM      3  C   UNL     1      -0.753  -1.116  -1.704  1.00  0.00    +0.164 C 
ATOM      4  N   UNL     1       0.569  -0.589  -1.356  1.00  0.00    -0.302 N 
ATOM      5  C   UNL     1       0.492   0.302  -0.305  1.00  0.00    +0.071 C 
ATOM      6  C   UNL     1       1.583   0.907   0.171  1.00  0.00    +0.036 C 
ATOM      7  C   UNL     1       2.878   0.614  -0.433  1.00  0.00    +0.009 C 
ATOM      8  C   UNL     1       2.962  -0.248  -1.463  1.00  0.00    +0.062 C 
ATOM      9  C   UNL     1       1.735  -0.925  -1.994  1.00  0.00    +0.258 C 
ATOM     10  O   UNL     1       1.803  -1.722  -2.924  1.00  0.00    -0.269 OA
ATOM     11  C   UNL     1       4.241  -0.609  -2.128  1.00  0.00    +0.275 C 
ATOM     12  O   UNL     1       5.383   0.179  -1.730  1.00  0.00    -0.458 OA
ATOM     13  C   UNL     1       5.317   1.192  -0.843  1.00  0.00    +0.343 C 
ATOM     14  O   UNL     1       6.229   2.018  -0.765  1.00  0.00    -0.248 OA
ATOM     15  C   UNL     1       4.114   1.261   0.123  1.00  0.00    +0.187 C 
ATOM     16  C   UNL     1      -0.904   0.405   0.102  1.00  0.00    +0.093 A 
ATOM     17  N   UNL     1      -1.374   1.160   1.099  1.00  0.00    -0.246 NA
ATOM     18  C   UNL     1      -2.698   1.086   1.306  1.00  0.00    +0.072 A 
ATOM     19  C   UNL     1      -3.578   0.265   0.533  1.00  0.00    +0.007 A 
ATOM     20  C   UNL     1      -4.952   0.271   0.863  1.00  0.00    +0.056 A 
ATOM     21  C   UNL     1      -5.438   1.055   1.903  1.00  0.00    +0.116 A 
ATOM     22  C   UNL     1      -4.584   1.851   2.645  1.00  0.00    +0.048 A 
ATOM     23  C   UNL     1      -3.222   1.855   2.336  1.00  0.00    +0.033 A 
ENDROOT
BRANCH   1  24
ATOM     24  C   UNL     1      -3.851  -1.429  -1.397  1.00  0.00    +0.033 C 
ATOM     25  C   UNL     1      -4.052  -2.798  -0.763  1.00  0.00    +0.009 C 
ENDBRANCH   1  24
BRANCH  21  26
ATOM     26  O   UNL     1      -6.775   1.009   2.163  1.00  0.00    -0.508 OA
ATOM     27  H   UNL     1      -6.971   1.605   2.905  1.00  0.00    +0.293 HD
ENDBRANCH  21  26
BRANCH  15  28
ATOM     28  C   UNL     1       4.537   0.700   1.499  1.00  0.00    +0.049 C 
ATOM     29  C   UNL     1       4.813  -0.798   1.534  1.00  0.00    +0.008 C 
ENDBRANCH  15  28
BRANCH  15  30
ATOM     30  O   UNL     1       3.831   2.662   0.315  1.00  0.00    -0.374 OA
ATOM     31  H   UNL     1       4.699   3.111   0.364  1.00  0.00    +0.212 HD
ENDBRANCH  15  30
TORSDOF 4
