REMARK SMILES O=C1NN=C2[C@@H]1Nc1ccc(F)cc1[C@@H]2c1ccc(C(F)(F)F)cc1
REMARK SMILES IDX 19 1 18 2 17 3 16 4 25 5 24 6 20 7 21 8 22 9 23 10 15 11
REMARK SMILES IDX 14 12 5 13 13 14 8 15 4 16 6 17 11 18 9 19 7 20 3 21 2 22
REMARK SMILES IDX 10 23 1 24 12 25
REMARK H PARENT 7 26 3 27
ROOT
ATOM      1  C   UNL     1       3.459  -0.248   1.095  1.00  0.00    +0.056 A 
ATOM      2  C   UNL     1       2.257   0.127   1.719  1.00  0.00    +0.013 A 
ATOM      3  C   UNL     1       1.055   0.115   1.008  1.00  0.00    +0.005 A 
ATOM      4  C   UNL     1       1.030  -0.264  -0.347  1.00  0.00    -0.035 A 
ATOM      5  C   UNL     1       2.238  -0.599  -0.980  1.00  0.00    +0.005 A 
ATOM      6  C   UNL     1       3.441  -0.587  -0.268  1.00  0.00    +0.013 A 
ENDROOT
BRANCH   1   7
ATOM      7  C   UNL     1       4.763  -0.186   1.850  1.00  0.00    +0.416 C 
ATOM      8  F   UNL     1       4.563  -0.455   3.193  1.00  0.00    -0.166 F 
ATOM      9  F   UNL     1       5.305   1.079   1.719  1.00  0.00    -0.166 F 
ATOM     10  F   UNL     1       5.660  -1.115   1.352  1.00  0.00    -0.166 F 
ENDBRANCH   1   7
BRANCH   4  11
ATOM     11  C   UNL     1      -0.259  -0.254  -1.143  1.00  0.00    +0.101 C 
ATOM     12  C   UNL     1      -1.398  -0.920  -0.384  1.00  0.00    -0.009 A 
ATOM     13  C   UNL     1      -0.629   1.153  -1.499  1.00  0.00    +0.082 C 
ATOM     14  C   UNL     1      -1.359  -2.309  -0.175  1.00  0.00    +0.046 A 
ATOM     15  C   UNL     1      -2.493  -0.172   0.128  1.00  0.00    +0.039 A 
ATOM     16  N   UNL     1      -0.554   1.626  -2.705  1.00  0.00    -0.178 NA
ATOM     17  C   UNL     1      -1.425   2.009  -0.562  1.00  0.00    +0.219 C 
ATOM     18  C   UNL     1      -2.386  -2.951   0.520  1.00  0.00    +0.123 A 
ATOM     19  C   UNL     1      -3.520  -0.833   0.819  1.00  0.00    +0.029 A 
ATOM     20  N   UNL     1      -2.572   1.254  -0.067  1.00  0.00    -0.369 N 
ATOM     21  N   UNL     1      -1.230   2.845  -2.776  1.00  0.00    -0.245 N 
ATOM     22  C   UNL     1      -1.812   3.084  -1.511  1.00  0.00    +0.268 C 
ATOM     23  C   UNL     1      -3.464  -2.215   1.015  1.00  0.00    +0.041 A 
ATOM     24  O   UNL     1      -2.530   4.083  -1.243  1.00  0.00    -0.270 OA
ATOM     25  F   UNL     1      -2.337  -4.292   0.715  1.00  0.00    -0.207 F 
ATOM     26  H   UNL     1      -3.386   1.782   0.322  1.00  0.00    +0.161 HD
ATOM     27  H   UNL     1      -1.341   3.418  -3.641  1.00  0.00    +0.193 HD
ENDBRANCH   4  11
TORSDOF 2
