REMARK SMILES CC[C@@]1(O)C(=O)OCc2c1cc1n(c2=O)Cc2cc3c(CN(C)C)c(O)ccc3nc2-1
REMARK SMILES IDX 3 1 10 2 9 3 8 4 7 5 5 6 6 7 14 8 15 9 13 10 16 11 17 12
REMARK SMILES IDX 18 13 19 14 29 15 28 16 27 17 25 18 20 19 30 20 31 21 12 22
REMARK SMILES IDX 11 23 2 24 1 25 4 26 21 28 22 29 23 30 24 31 26 32
REMARK H PARENT 4 27 26 33
ROOT
ATOM      1  C   UNL     1      -5.090   0.063   1.485  1.00  0.00    +0.187 C 
ATOM      2  C   UNL     1      -3.969  -0.021   0.487  1.00  0.00    +0.009 C 
ATOM      3  C   UNL     1      -4.233  -0.119  -0.829  1.00  0.00    +0.062 C 
ATOM      4  C   UNL     1      -5.609  -0.166  -1.389  1.00  0.00    +0.275 C 
ATOM      5  O   UNL     1      -6.663  -0.300  -0.414  1.00  0.00    -0.458 OA
ATOM      6  C   UNL     1      -6.444  -0.407   0.912  1.00  0.00    +0.343 C 
ATOM      7  O   UNL     1      -7.330  -0.821   1.663  1.00  0.00    -0.248 OA
ATOM      8  C   UNL     1      -3.117  -0.165  -1.830  1.00  0.00    +0.258 C 
ATOM      9  O   UNL     1      -3.347  -0.242  -3.032  1.00  0.00    -0.269 OA
ATOM     10  N   UNL     1      -1.858  -0.105  -1.292  1.00  0.00    -0.302 N 
ATOM     11  C   UNL     1      -0.617  -0.141  -2.072  1.00  0.00    +0.164 C 
ATOM     12  C   UNL     1       0.433  -0.053  -1.008  1.00  0.00    +0.000 A 
ATOM     13  C   UNL     1       1.810  -0.035  -1.096  1.00  0.00    +0.018 A 
ATOM     14  C   UNL     1       2.577   0.057   0.093  1.00  0.00    +0.009 A 
ATOM     15  C   UNL     1       1.842   0.147   1.322  1.00  0.00    +0.072 A 
ATOM     16  C   UNL     1       2.531   0.277   2.513  1.00  0.00    +0.033 A 
ATOM     17  C   UNL     1       3.920   0.330   2.551  1.00  0.00    +0.049 A 
ATOM     18  C   UNL     1       4.642   0.231   1.372  1.00  0.00    +0.120 A 
ATOM     19  C   UNL     1       4.008   0.074   0.125  1.00  0.00    +0.017 A 
ATOM     20  N   UNL     1       0.500   0.127   1.404  1.00  0.00    -0.246 NA
ATOM     21  C   UNL     1      -0.153   0.024   0.244  1.00  0.00    +0.092 A 
ATOM     22  C   UNL     1      -1.598  -0.011   0.062  1.00  0.00    +0.071 C 
ATOM     23  C   UNL     1      -2.589   0.030   0.956  1.00  0.00    +0.036 C 
ENDROOT
BRANCH   1  24
ATOM     24  C   UNL     1      -5.261   1.469   2.101  1.00  0.00    +0.049 C 
ATOM     25  C   UNL     1      -5.523   2.589   1.102  1.00  0.00    +0.008 C 
ENDBRANCH   1  24
BRANCH   1  26
ATOM     26  O   UNL     1      -4.779  -0.833   2.572  1.00  0.00    -0.374 OA
ATOM     27  H   UNL     1      -5.624  -1.002   3.035  1.00  0.00    +0.212 HD
ENDBRANCH   1  26
BRANCH  19  28
ATOM     28  C   UNL     1       4.833   0.029  -1.156  1.00  0.00    +0.124 C 
BRANCH  28  29
ATOM     29  N   UNL     1       6.147  -0.647  -1.008  1.00  0.00    -0.305 NA
ATOM     30  C   UNL     1       5.973  -2.107  -0.936  1.00  0.00    +0.105 C 
ATOM     31  C   UNL     1       7.006  -0.318  -2.153  1.00  0.00    +0.105 C 
ENDBRANCH  28  29
ENDBRANCH  19  28
BRANCH  18  32
ATOM     32  O   UNL     1       6.003   0.289   1.500  1.00  0.00    -0.508 OA
ATOM     33  H   UNL     1       6.381  -0.006   0.641  1.00  0.00    +0.293 HD
ENDBRANCH  18  32
TORSDOF 5
