REMARK SMILES CCC1(O)C(=O)OCc2c1cc1n(c2=O)Cc2cc3cc(CN(C)C)c(O)cc3nc2-1
REMARK SMILES IDX 3 1 5 2 6 3 7 4 8 5 9 6 10 7 11 8 12 9 31 10 30 11 29 12
REMARK SMILES IDX 28 13 26 14 21 15 20 16 19 17 18 18 17 19 16 20 13 21 14 22
REMARK SMILES IDX 15 23 2 24 1 25 4 26 27 28 22 30 23 31 24 32 25 33
REMARK H PARENT 4 27 27 29
ROOT
ATOM      1  C   UNL     1      -5.262   0.149   0.162  1.00  0.00    +0.187 C 
ATOM      2  C   UNL     1      -6.221  -0.677   1.012  1.00  0.00    +0.343 C 
ATOM      3  O   UNL     1      -7.001  -0.145   1.844  1.00  0.00    -0.248 OA
ATOM      4  O   UNL     1      -6.263  -2.064   0.855  1.00  0.00    -0.458 OA
ATOM      5  C   UNL     1      -5.475  -2.727  -0.125  1.00  0.00    +0.275 C 
ATOM      6  C   UNL     1      -4.104  -2.105  -0.187  1.00  0.00    +0.062 A 
ATOM      7  C   UNL     1      -3.979  -0.694  -0.019  1.00  0.00    +0.009 A 
ATOM      8  C   UNL     1      -2.690  -0.117  -0.125  1.00  0.00    +0.036 A 
ATOM      9  C   UNL     1      -1.603  -0.950  -0.366  1.00  0.00    +0.071 A 
ATOM     10  C   UNL     1      -0.213  -0.596  -0.512  1.00  0.00    +0.093 A 
ATOM     11  N   UNL     1       0.378   0.621  -0.436  1.00  0.00    -0.246 NA
ATOM     12  C   UNL     1       1.730   0.716  -0.611  1.00  0.00    +0.075 A 
ATOM     13  C   UNL     1       2.356   1.962  -0.539  1.00  0.00    +0.075 A 
ATOM     14  C   UNL     1       3.743   2.072  -0.716  1.00  0.00    +0.122 A 
ATOM     15  C   UNL     1       4.521   0.919  -0.959  1.00  0.00    +0.009 A 
ATOM     16  C   UNL     1       3.890  -0.335  -1.049  1.00  0.00    +0.019 A 
ATOM     17  C   UNL     1       2.506  -0.450  -0.872  1.00  0.00    +0.001 A 
ATOM     18  C   UNL     1       1.867  -1.705  -0.949  1.00  0.00    +0.018 A 
ATOM     19  C   UNL     1       0.489  -1.748  -0.762  1.00  0.00    +0.000 A 
ATOM     20  C   UNL     1      -0.449  -2.919  -0.788  1.00  0.00    +0.164 C 
ATOM     21  N   UNL     1      -1.747  -2.282  -0.524  1.00  0.00    -0.302 N 
ATOM     22  C   UNL     1      -2.960  -2.889  -0.453  1.00  0.00    +0.258 A 
ATOM     23  O   UNL     1      -3.055  -4.135  -0.628  1.00  0.00    -0.269 OA
ENDROOT
BRANCH   1  24
ATOM     24  C   UNL     1      -4.985   1.553   0.801  1.00  0.00    +0.049 C 
ATOM     25  C   UNL     1      -6.209   2.477   0.898  1.00  0.00    +0.008 C 
ENDBRANCH   1  24
BRANCH   1  26
ATOM     26  O   UNL     1      -5.861   0.321  -1.099  1.00  0.00    -0.374 OA
ATOM     27  H   UNL     1      -5.216   0.809  -1.676  1.00  0.00    +0.212 HD
ENDBRANCH   1  26
BRANCH  14  28
ATOM     28  O   UNL     1       4.348   3.327  -0.656  1.00  0.00    -0.508 OA
ATOM     29  H   UNL     1       3.811   4.169  -0.481  1.00  0.00    +0.293 HD
ENDBRANCH  14  28
BRANCH  15  30
ATOM     30  C   UNL     1       6.026   1.013  -1.143  1.00  0.00    +0.123 C 
BRANCH  30  31
ATOM     31  N   UNL     1       6.800   0.820   0.105  1.00  0.00    -0.305 NA
ATOM     32  C   UNL     1       6.537   1.865   1.106  1.00  0.00    +0.105 C 
ATOM     33  C   UNL     1       6.623  -0.520   0.686  1.00  0.00    +0.105 C 
ENDBRANCH  30  31
ENDBRANCH  15  30
TORSDOF 5
