REMARK SMILES CCC1(O)C(=O)OCc2c1cc1n(c2=O)Cc2c-1cc(CN(C)C)c1cc(O)ccc21
REMARK SMILES IDX 3 1 5 2 6 3 7 4 8 5 9 6 10 7 11 8 12 9 13 10 14 11 15 12
REMARK SMILES IDX 16 13 17 14 18 15 19 16 20 17 25 18 31 19 30 20 29 21 27 22
REMARK SMILES IDX 26 23 2 24 1 25 4 26 21 28 22 29 23 30 24 31 28 32
REMARK H PARENT 4 27 28 33
ROOT
ATOM      1  C   UNL     1       4.534   1.178  -0.663  1.00  0.00    +0.187 C 
ATOM      2  C   UNL     1       5.904   0.565  -0.894  1.00  0.00    +0.343 C 
ATOM      3  O   UNL     1       6.944   1.242  -0.673  1.00  0.00    -0.248 OA
ATOM      4  O   UNL     1       6.044  -0.738  -1.363  1.00  0.00    -0.458 OA
ATOM      5  C   UNL     1       4.991  -1.425  -2.021  1.00  0.00    +0.275 C 
ATOM      6  C   UNL     1       3.667  -1.148  -1.364  1.00  0.00    +0.062 A 
ATOM      7  C   UNL     1       3.427   0.114  -0.753  1.00  0.00    +0.009 A 
ATOM      8  C   UNL     1       2.119   0.409  -0.303  1.00  0.00    +0.035 A 
ATOM      9  C   UNL     1       1.134  -0.567  -0.411  1.00  0.00    +0.052 A 
ATOM     10  N   UNL     1       1.392  -1.766  -0.967  1.00  0.00    -0.303 N 
ATOM     11  C   UNL     1       2.614  -2.086  -1.466  1.00  0.00    +0.258 A 
ATOM     12  O   UNL     1       2.795  -3.204  -2.023  1.00  0.00    -0.269 OA
ATOM     13  C   UNL     1       0.184  -2.596  -0.985  1.00  0.00    +0.163 C 
ATOM     14  C   UNL     1      -0.838  -1.695  -0.344  1.00  0.00    -0.011 A 
ATOM     15  C   UNL     1      -0.255  -0.495  -0.011  1.00  0.00    +0.004 A 
ATOM     16  C   UNL     1      -0.969   0.533   0.593  1.00  0.00    +0.016 A 
ATOM     17  C   UNL     1      -2.337   0.340   0.876  1.00  0.00    -0.025 A 
ATOM     18  C   UNL     1      -2.962  -0.901   0.531  1.00  0.00    -0.010 A 
ATOM     19  C   UNL     1      -2.193  -1.932  -0.088  1.00  0.00    -0.012 A 
ATOM     20  C   UNL     1      -2.795  -3.152  -0.431  1.00  0.00    +0.013 A 
ATOM     21  C   UNL     1      -4.148  -3.366  -0.170  1.00  0.00    +0.047 A 
ATOM     22  C   UNL     1      -4.917  -2.366   0.434  1.00  0.00    +0.116 A 
ATOM     23  C   UNL     1      -4.330  -1.145   0.782  1.00  0.00    +0.055 A 
ENDROOT
BRANCH   1  24
ATOM     24  C   UNL     1       4.544   1.899   0.724  1.00  0.00    +0.049 C 
ATOM     25  C   UNL     1       4.714   0.947   1.913  1.00  0.00    +0.008 C 
ENDBRANCH   1  24
BRANCH   1  26
ATOM     26  O   UNL     1       4.336   2.129  -1.681  1.00  0.00    -0.374 OA
ATOM     27  H   UNL     1       3.462   2.574  -1.522  1.00  0.00    +0.212 HD
ENDBRANCH   1  26
BRANCH  17  28
ATOM     28  C   UNL     1      -3.102   1.479   1.518  1.00  0.00    +0.120 C 
BRANCH  28  29
ATOM     29  N   UNL     1      -4.079   2.054   0.570  1.00  0.00    -0.305 NA
ATOM     30  C   UNL     1      -5.056   2.882   1.294  1.00  0.00    +0.105 C 
ATOM     31  C   UNL     1      -3.400   2.871  -0.452  1.00  0.00    +0.105 C 
ENDBRANCH  28  29
ENDBRANCH  17  28
BRANCH  22  32
ATOM     32  O   UNL     1      -6.269  -2.574   0.695  1.00  0.00    -0.508 OA
ATOM     33  H   UNL     1      -6.727  -3.447   0.456  1.00  0.00    +0.293 HD
ENDBRANCH  22  32
TORSDOF 5
