REMARK SMILES CC[C@@]1(O)C(=O)OCc2c1cc1n(c2=O)Cc2cc3c(CN(C)C)c(O)ccc3nc2-1
REMARK SMILES IDX 3 1 10 2 9 3 8 4 7 5 5 6 6 7 14 8 15 9 13 10 16 11 17 12
REMARK SMILES IDX 18 13 19 14 29 15 28 16 27 17 25 18 20 19 30 20 31 21 12 22
REMARK SMILES IDX 11 23 2 24 1 25 4 26 21 28 22 29 23 30 24 31 26 32
REMARK H PARENT 4 27 26 33
ROOT
ATOM      1  C   UNL     1       5.126   0.170  -0.484  1.00  0.00    +0.187 C 
ATOM      2  C   UNL     1       3.710   0.732  -0.447  1.00  0.00    +0.009 C 
ATOM      3  C   UNL     1       3.559   2.059  -0.649  1.00  0.00    +0.062 C 
ATOM      4  C   UNL     1       4.728   2.928  -0.964  1.00  0.00    +0.275 C 
ATOM      5  O   UNL     1       5.739   2.232  -1.725  1.00  0.00    -0.458 OA
ATOM      6  C   UNL     1       5.845   0.878  -1.675  1.00  0.00    +0.343 C 
ATOM      7  O   UNL     1       6.527   0.287  -2.508  1.00  0.00    -0.248 OA
ATOM      8  C   UNL     1       2.219   2.717  -0.559  1.00  0.00    +0.258 C 
ATOM      9  O   UNL     1       2.085   3.925  -0.720  1.00  0.00    -0.269 OA
ATOM     10  N   UNL     1       1.184   1.861  -0.284  1.00  0.00    -0.302 N 
ATOM     11  C   UNL     1      -0.220   2.266  -0.148  1.00  0.00    +0.164 C 
ATOM     12  C   UNL     1      -0.896   0.969   0.168  1.00  0.00    +0.000 A 
ATOM     13  C   UNL     1      -2.221   0.677   0.405  1.00  0.00    +0.018 A 
ATOM     14  C   UNL     1      -2.590  -0.663   0.674  1.00  0.00    +0.009 A 
ATOM     15  C   UNL     1      -1.541  -1.634   0.682  1.00  0.00    +0.072 A 
ATOM     16  C   UNL     1      -1.856  -2.957   0.937  1.00  0.00    +0.033 A 
ATOM     17  C   UNL     1      -3.164  -3.368   1.188  1.00  0.00    +0.049 A 
ATOM     18  C   UNL     1      -4.189  -2.430   1.184  1.00  0.00    +0.120 A 
ATOM     19  C   UNL     1      -3.934  -1.073   0.931  1.00  0.00    +0.017 A 
ATOM     20  N   UNL     1      -0.245  -1.349   0.455  1.00  0.00    -0.246 NA
ATOM     21  C   UNL     1       0.026  -0.063   0.207  1.00  0.00    +0.092 A 
ATOM     22  C   UNL     1       1.339   0.505  -0.076  1.00  0.00    +0.071 C 
ATOM     23  C   UNL     1       2.539  -0.080  -0.141  1.00  0.00    +0.036 C 
ENDROOT
BRANCH   1  24
ATOM     24  C   UNL     1       5.217  -1.371  -0.623  1.00  0.00    +0.049 C 
ATOM     25  C   UNL     1       6.613  -1.968  -0.439  1.00  0.00    +0.008 C 
ENDBRANCH   1  24
BRANCH   1  26
ATOM     26  O   UNL     1       5.727   0.556   0.760  1.00  0.00    -0.374 OA
ATOM     27  H   UNL     1       6.681   0.374   0.692  1.00  0.00    +0.212 HD
ENDBRANCH   1  26
BRANCH  19  28
ATOM     28  C   UNL     1      -5.085  -0.077   0.948  1.00  0.00    +0.124 C 
BRANCH  28  29
ATOM     29  N   UNL     1      -5.372   0.529  -0.369  1.00  0.00    -0.305 NA
ATOM     30  C   UNL     1      -6.330   1.626  -0.211  1.00  0.00    +0.105 C 
ATOM     31  C   UNL     1      -5.911  -0.465  -1.301  1.00  0.00    +0.105 C 
ENDBRANCH  28  29
ENDBRANCH  19  28
BRANCH  18  32
ATOM     32  O   UNL     1      -5.470  -2.839   1.430  1.00  0.00    -0.508 OA
ATOM     33  H   UNL     1      -5.476  -3.801   1.572  1.00  0.00    +0.293 HD
ENDBRANCH  18  32
TORSDOF 5
