REMARK SMILES CC(=O)Nc1cccc(-n2c(=O)n(C3CC3)c(=O)c3c(Nc4ccc(I)cc4F)n(C)c(=O)c(C)c32)c1
REMARK SMILES IDX 35 1 34 2 36 3 19 4 20 5 30 6 32 7 33 8 31 9 17 10 18 11
REMARK SMILES IDX 13 12 11 13 12 14 10 15 9 16 8 17 37 18 7 19 5 20 6 21 4 22
REMARK SMILES IDX 2 23 3 24 1 26 21 27 22 29 28 30 23 31 27 32 24 33 25 34
REMARK SMILES IDX 29 35 26 36 14 37 15 38 16 39
REMARK H PARENT 4 25 21 28
ROOT
ATOM      1  C   UNL     1       1.190   1.428   2.819  1.00  0.00    +0.053 C 
ATOM      2  C   UNL     1      -0.017   0.852   2.124  1.00  0.00    +0.040 C 
ATOM      3  C   UNL     1      -0.052   0.012   1.062  1.00  0.00    +0.076 C 
ATOM      4  C   UNL     1      -1.289  -0.691   0.790  1.00  0.00    +0.106 C 
ATOM      5  C   UNL     1      -2.485  -0.287   1.291  1.00  0.00    +0.128 C 
ATOM      6  N   UNL     1      -2.476   0.731   2.249  1.00  0.00    -0.297 N 
ATOM      7  C   UNL     1      -1.308   1.273   2.764  1.00  0.00    +0.256 C 
ATOM      8  O   UNL     1      -1.285   2.089   3.685  1.00  0.00    -0.269 OA
ATOM      9  C   UNL     1      -3.731   1.089   2.912  1.00  0.00    +0.155 C 
ATOM     10  C   UNL     1      -1.236  -1.947  -0.002  1.00  0.00    +0.268 C 
ATOM     11  O   UNL     1      -2.144  -2.777   0.076  1.00  0.00    -0.268 OA
ATOM     12  N   UNL     1      -0.103  -2.134  -0.767  1.00  0.00    -0.256 N 
ATOM     13  C   UNL     1       1.067  -1.379  -0.660  1.00  0.00    +0.336 C 
ATOM     14  O   UNL     1       2.057  -1.680  -1.338  1.00  0.00    -0.247 OA
ATOM     15  N   UNL     1       1.048  -0.275   0.229  1.00  0.00    -0.261 N 
ENDROOT
BRANCH  15  16
ATOM     16  C   UNL     1       2.115   0.686   0.017  1.00  0.00    +0.053 A 
ATOM     17  C   UNL     1       1.813   2.037  -0.210  1.00  0.00    +0.027 A 
ATOM     18  C   UNL     1       3.463   0.288   0.002  1.00  0.00    +0.053 A 
ATOM     19  C   UNL     1       2.834   2.963  -0.422  1.00  0.00    +0.004 A 
ATOM     20  C   UNL     1       4.495   1.212  -0.217  1.00  0.00    +0.043 A 
ATOM     21  C   UNL     1       4.169   2.552  -0.422  1.00  0.00    +0.026 A 
BRANCH  20  22
ATOM     22  N   UNL     1       5.814   0.713  -0.220  1.00  0.00    -0.326 N 
ATOM     23  C   UNL     1       6.986   1.425  -0.403  1.00  0.00    +0.221 C 
ATOM     24  O   UNL     1       7.095   2.631  -0.592  1.00  0.00    -0.275 OA
ATOM     25  H   UNL     1       5.907  -0.289  -0.098  1.00  0.00    +0.169 HD
ATOM     26  C   UNL     1       8.204   0.535  -0.375  1.00  0.00    +0.114 C 
ENDBRANCH  20  22
ENDBRANCH  15  16
BRANCH   5  27
ATOM     27  N   UNL     1      -3.701  -0.889   0.944  1.00  0.00    -0.338 N 
ATOM     28  H   UNL     1      -3.566  -1.897   0.750  1.00  0.00    +0.168 HD
BRANCH  27  29
ATOM     29  C   UNL     1      -4.518  -0.403  -0.125  1.00  0.00    +0.076 A 
ATOM     30  C   UNL     1      -5.527  -1.238  -0.637  1.00  0.00    +0.147 A 
ATOM     31  C   UNL     1      -4.437   0.904  -0.623  1.00  0.00    +0.030 A 
ATOM     32  C   UNL     1      -6.398  -0.817  -1.638  1.00  0.00    +0.056 A 
ATOM     33  C   UNL     1      -5.307   1.340  -1.630  1.00  0.00    +0.017 A 
ATOM     34  C   UNL     1      -6.281   0.477  -2.135  1.00  0.00    +0.016 A 
ATOM     35  F   UNL     1      -5.652  -2.487  -0.162  1.00  0.00    -0.205 F 
ATOM     36  I   UNL     1      -7.567   1.132  -3.628  1.00  0.00    -0.044 I 
ENDBRANCH  27  29
ENDBRANCH   5  27
BRANCH  12  37
ATOM     37  C   UNL     1      -0.073  -3.301  -1.642  1.00  0.00    +0.096 C 
ATOM     38  C   UNL     1       0.198  -3.179  -3.124  1.00  0.00    +0.028 C 
ATOM     39  C   UNL     1      -1.165  -3.573  -2.653  1.00  0.00    +0.028 C 
ENDBRANCH  12  37
TORSDOF 5
