REMARK SMILES CC(=O)Nc1cccc(-n2c(=O)n(C3CC3)c(=O)c3c(Nc4ccc(I)cc4F)n(C)c(=O)c(C)c32)c1
REMARK SMILES IDX 35 1 34 2 36 3 19 4 20 5 30 6 32 7 33 8 31 9 17 10 18 11
REMARK SMILES IDX 13 12 11 13 12 14 10 15 9 16 8 17 37 18 7 19 5 20 6 21 4 22
REMARK SMILES IDX 2 23 3 24 1 26 21 27 22 29 28 30 23 31 27 32 24 33 25 34
REMARK SMILES IDX 29 35 26 36 14 37 15 38 16 39
REMARK H PARENT 4 25 21 28
ROOT
ATOM      1  C   UNL     1       1.510   2.587   0.171  1.00  0.00    +0.053 C 
ATOM      2  C   UNL     1       0.461   1.547   0.463  1.00  0.00    +0.040 C 
ATOM      3  C   UNL     1       0.314   0.329  -0.109  1.00  0.00    +0.076 C 
ATOM      4  C   UNL     1      -0.931  -0.388   0.085  1.00  0.00    +0.106 C 
ATOM      5  C   UNL     1      -1.900   0.029   0.939  1.00  0.00    +0.128 C 
ATOM      6  N   UNL     1      -1.639   1.174   1.697  1.00  0.00    -0.297 N 
ATOM      7  C   UNL     1      -0.541   1.994   1.485  1.00  0.00    +0.256 C 
ATOM      8  O   UNL     1      -0.349   3.041   2.102  1.00  0.00    -0.269 OA
ATOM      9  C   UNL     1      -2.560   1.563   2.763  1.00  0.00    +0.155 C 
ATOM     10  C   UNL     1      -1.177  -1.590  -0.752  1.00  0.00    +0.268 C 
ATOM     11  O   UNL     1      -1.955  -2.475  -0.397  1.00  0.00    -0.268 OA
ATOM     12  N   UNL     1      -0.467  -1.599  -1.934  1.00  0.00    -0.256 N 
ATOM     13  C   UNL     1       0.886  -1.254  -1.913  1.00  0.00    +0.336 C 
ATOM     14  O   UNL     1       1.682  -1.828  -2.663  1.00  0.00    -0.247 OA
ATOM     15  N   UNL     1       1.268  -0.281  -0.947  1.00  0.00    -0.261 N 
ENDROOT
BRANCH  15  16
ATOM     16  C   UNL     1       2.693  -0.100  -0.747  1.00  0.00    +0.053 A 
ATOM     17  C   UNL     1       3.573   0.032  -1.828  1.00  0.00    +0.027 A 
ATOM     18  C   UNL     1       3.227  -0.063   0.556  1.00  0.00    +0.053 A 
ATOM     19  C   UNL     1       4.939   0.214  -1.612  1.00  0.00    +0.004 A 
ATOM     20  C   UNL     1       4.600   0.123   0.782  1.00  0.00    +0.043 A 
ATOM     21  C   UNL     1       5.449   0.263  -0.313  1.00  0.00    +0.026 A 
BRANCH  20  22
ATOM     22  N   UNL     1       5.033   0.156   2.125  1.00  0.00    -0.326 N 
ATOM     23  C   UNL     1       6.325   0.332   2.589  1.00  0.00    +0.221 C 
ATOM     24  O   UNL     1       7.339   0.476   1.915  1.00  0.00    -0.275 OA
ATOM     25  H   UNL     1       4.315   0.037   2.829  1.00  0.00    +0.169 HD
ATOM     26  C   UNL     1       6.398   0.302   4.095  1.00  0.00    +0.114 C 
ENDBRANCH  20  22
ENDBRANCH  15  16
BRANCH   5  27
ATOM     27  N   UNL     1      -3.111  -0.651   1.098  1.00  0.00    -0.338 N 
ATOM     28  H   UNL     1      -3.014  -1.654   0.866  1.00  0.00    +0.168 HD
BRANCH  27  29
ATOM     29  C   UNL     1      -4.338  -0.230   0.500  1.00  0.00    +0.076 A 
ATOM     30  C   UNL     1      -5.441  -1.102   0.545  1.00  0.00    +0.147 A 
ATOM     31  C   UNL     1      -4.534   1.039  -0.058  1.00  0.00    +0.030 A 
ATOM     32  C   UNL     1      -6.685  -0.751   0.028  1.00  0.00    +0.056 A 
ATOM     33  C   UNL     1      -5.781   1.405  -0.582  1.00  0.00    +0.017 A 
ATOM     34  C   UNL     1      -6.849   0.508  -0.538  1.00  0.00    +0.016 A 
ATOM     35  F   UNL     1      -5.295  -2.319   1.092  1.00  0.00    -0.205 F 
ATOM     36  I   UNL     1      -8.694   1.060  -1.316  1.00  0.00    -0.044 I 
ENDBRANCH  27  29
ENDBRANCH   5  27
BRANCH  12  37
ATOM     37  C   UNL     1      -0.889  -2.556  -2.944  1.00  0.00    +0.096 C 
ATOM     38  C   UNL     1      -0.988  -2.160  -4.397  1.00  0.00    +0.028 C 
ATOM     39  C   UNL     1      -2.236  -2.439  -3.617  1.00  0.00    +0.028 C 
ENDBRANCH  12  37
TORSDOF 5
