REMARK SMILES CC(=O)Nc1cccc(-n2c(=O)n(C3CC3)c(=O)c3c(Nc4ccc(I)cc4F)n(C)c(=O)c(C)c32)c1
REMARK SMILES IDX 35 1 34 2 36 3 19 4 20 5 30 6 32 7 33 8 31 9 17 10 18 11
REMARK SMILES IDX 13 12 11 13 12 14 10 15 9 16 8 17 37 18 7 19 5 20 6 21 4 22
REMARK SMILES IDX 2 23 3 24 1 26 21 27 22 29 28 30 23 31 27 32 24 33 25 34
REMARK SMILES IDX 29 35 26 36 14 37 15 38 16 39
REMARK H PARENT 4 25 21 28
ROOT
ATOM      1  C   UNL     1      -1.556  -2.054   1.753  1.00  0.00    +0.053 C 
ATOM      2  C   UNL     1      -0.543  -1.465   0.806  1.00  0.00    +0.040 C 
ATOM      3  C   UNL     1      -0.246  -0.158   0.602  1.00  0.00    +0.076 C 
ATOM      4  C   UNL     1       0.985   0.178  -0.094  1.00  0.00    +0.106 C 
ATOM      5  C   UNL     1       1.747  -0.763  -0.721  1.00  0.00    +0.128 C 
ATOM      6  N   UNL     1       1.285  -2.084  -0.713  1.00  0.00    -0.297 N 
ATOM      7  C   UNL     1       0.226  -2.514   0.067  1.00  0.00    +0.256 C 
ATOM      8  O   UNL     1      -0.108  -3.694   0.164  1.00  0.00    -0.269 OA
ATOM      9  C   UNL     1       1.967  -3.103  -1.505  1.00  0.00    +0.155 C 
ATOM     10  C   UNL     1       1.470   1.589  -0.053  1.00  0.00    +0.268 C 
ATOM     11  O   UNL     1       2.483   1.924  -0.675  1.00  0.00    -0.268 OA
ATOM     12  N   UNL     1       0.739   2.477   0.716  1.00  0.00    -0.256 N 
ATOM     13  C   UNL     1      -0.494   2.197   1.310  1.00  0.00    +0.336 C 
ATOM     14  O   UNL     1      -1.092   3.080   1.936  1.00  0.00    -0.247 OA
ATOM     15  N   UNL     1      -1.019   0.901   1.114  1.00  0.00    -0.261 N 
ENDROOT
BRANCH  15  16
ATOM     16  C   UNL     1      -2.460   0.790   1.254  1.00  0.00    +0.053 A 
ATOM     17  C   UNL     1      -3.130   1.267   2.388  1.00  0.00    +0.027 A 
ATOM     18  C   UNL     1      -3.218   0.207   0.219  1.00  0.00    +0.053 A 
ATOM     19  C   UNL     1      -4.515   1.148   2.495  1.00  0.00    +0.004 A 
ATOM     20  C   UNL     1      -4.607   0.084   0.316  1.00  0.00    +0.043 A 
ATOM     21  C   UNL     1      -5.248   0.557   1.466  1.00  0.00    +0.026 A 
BRANCH  20  22
ATOM     22  N   UNL     1      -5.419  -0.494  -0.683  1.00  0.00    -0.326 N 
ATOM     23  C   UNL     1      -5.015  -1.018  -1.898  1.00  0.00    +0.221 C 
ATOM     24  O   UNL     1      -3.870  -1.079  -2.330  1.00  0.00    -0.275 OA
ATOM     25  H   UNL     1      -6.410  -0.530  -0.481  1.00  0.00    +0.169 HD
ATOM     26  C   UNL     1      -6.171  -1.569  -2.695  1.00  0.00    +0.114 C 
ENDBRANCH  20  22
ENDBRANCH  15  16
BRANCH   5  27
ATOM     27  N   UNL     1       2.955  -0.464  -1.380  1.00  0.00    -0.338 N 
ATOM     28  H   UNL     1       3.068   0.560  -1.449  1.00  0.00    +0.168 HD
BRANCH  27  29
ATOM     29  C   UNL     1       4.217  -0.945  -0.912  1.00  0.00    +0.076 A 
ATOM     30  C   UNL     1       4.482  -1.302   0.421  1.00  0.00    +0.147 A 
ATOM     31  C   UNL     1       5.284  -0.954  -1.823  1.00  0.00    +0.030 A 
ATOM     32  C   UNL     1       5.751  -1.710   0.826  1.00  0.00    +0.056 A 
ATOM     33  C   UNL     1       6.561  -1.362  -1.425  1.00  0.00    +0.017 A 
ATOM     34  C   UNL     1       6.787  -1.743  -0.103  1.00  0.00    +0.016 A 
ATOM     35  F   UNL     1       3.518  -1.240   1.353  1.00  0.00    -0.205 F 
ATOM     36  I   UNL     1       8.685  -2.347   0.488  1.00  0.00    -0.044 I 
ENDBRANCH  27  29
ENDBRANCH   5  27
BRANCH  12  37
ATOM     37  C   UNL     1       1.277   3.826   0.883  1.00  0.00    +0.096 C 
ATOM     38  C   UNL     1       1.688   4.694  -0.287  1.00  0.00    +0.028 C 
ATOM     39  C   UNL     1       0.488   5.066   0.521  1.00  0.00    +0.028 C 
ENDBRANCH  12  37
TORSDOF 5
