REMARK SMILES CC(=O)Nc1cccc(-n2c(=O)n(C3CC3)c(=O)c3c(Nc4ccc(I)cc4F)n(C)c(=O)c(C)c32)c1
REMARK SMILES IDX 35 1 34 2 36 3 19 4 20 5 30 6 32 7 33 8 31 9 17 10 18 11
REMARK SMILES IDX 13 12 11 13 12 14 10 15 9 16 8 17 37 18 7 19 5 20 6 21 4 22
REMARK SMILES IDX 2 23 3 24 1 26 21 27 22 29 28 30 23 31 27 32 24 33 25 34
REMARK SMILES IDX 29 35 26 36 14 37 15 38 16 39
REMARK H PARENT 4 25 21 28
ROOT
ATOM      1  C   UNL     1       0.965  -0.883  -2.700  1.00  0.00    +0.053 C 
ATOM      2  C   UNL     1       0.287  -0.903  -1.356  1.00  0.00    +0.040 C 
ATOM      3  C   UNL     1       0.270   0.072  -0.418  1.00  0.00    +0.076 C 
ATOM      4  C   UNL     1      -0.671  -0.031   0.681  1.00  0.00    +0.106 C 
ATOM      5  C   UNL     1      -1.428  -1.135   0.905  1.00  0.00    +0.128 C 
ATOM      6  N   UNL     1      -1.246  -2.224   0.049  1.00  0.00    -0.297 N 
ATOM      7  C   UNL     1      -0.487  -2.164  -1.110  1.00  0.00    +0.256 C 
ATOM      8  O   UNL     1      -0.426  -3.084  -1.925  1.00  0.00    -0.269 OA
ATOM      9  C   UNL     1      -1.891  -3.499   0.351  1.00  0.00    +0.155 C 
ATOM     10  C   UNL     1      -0.856   1.159   1.550  1.00  0.00    +0.268 C 
ATOM     11  O   UNL     1      -1.284   1.063   2.700  1.00  0.00    -0.268 OA
ATOM     12  N   UNL     1      -0.521   2.350   0.939  1.00  0.00    -0.256 N 
ATOM     13  C   UNL     1       0.662   2.427   0.203  1.00  0.00    +0.336 C 
ATOM     14  O   UNL     1       1.321   3.473   0.197  1.00  0.00    -0.247 OA
ATOM     15  N   UNL     1       1.066   1.235  -0.457  1.00  0.00    -0.261 N 
ENDROOT
BRANCH  15  16
ATOM     16  C   UNL     1       2.415   1.221  -0.988  1.00  0.00    +0.053 A 
ATOM     17  C   UNL     1       2.916   2.287  -1.745  1.00  0.00    +0.027 A 
ATOM     18  C   UNL     1       3.262   0.125  -0.730  1.00  0.00    +0.053 A 
ATOM     19  C   UNL     1       4.218   2.253  -2.247  1.00  0.00    +0.004 A 
ATOM     20  C   UNL     1       4.567   0.079  -1.230  1.00  0.00    +0.043 A 
ATOM     21  C   UNL     1       5.037   1.154  -1.992  1.00  0.00    +0.026 A 
BRANCH  20  22
ATOM     22  N   UNL     1       5.457  -0.994  -1.012  1.00  0.00    -0.326 N 
ATOM     23  C   UNL     1       5.218  -2.156  -0.301  1.00  0.00    +0.221 C 
ATOM     24  O   UNL     1       4.187  -2.458   0.291  1.00  0.00    -0.275 OA
ATOM     25  H   UNL     1       6.377  -0.896  -1.424  1.00  0.00    +0.169 HD
ATOM     26  C   UNL     1       6.415  -3.073  -0.283  1.00  0.00    +0.114 C 
ENDBRANCH  20  22
ENDBRANCH  15  16
BRANCH   5  27
ATOM     27  N   UNL     1      -2.353  -1.217   1.951  1.00  0.00    -0.338 N 
ATOM     28  H   UNL     1      -2.088  -0.597   2.735  1.00  0.00    +0.168 HD
BRANCH  27  29
ATOM     29  C   UNL     1      -3.760  -1.048   1.776  1.00  0.00    +0.076 A 
ATOM     30  C   UNL     1      -4.570  -0.923   2.919  1.00  0.00    +0.147 A 
ATOM     31  C   UNL     1      -4.397  -1.086   0.529  1.00  0.00    +0.030 A 
ATOM     32  C   UNL     1      -5.955  -0.804   2.837  1.00  0.00    +0.056 A 
ATOM     33  C   UNL     1      -5.789  -0.967   0.432  1.00  0.00    +0.017 A 
ATOM     34  C   UNL     1      -6.561  -0.824   1.586  1.00  0.00    +0.016 A 
ATOM     35  F   UNL     1      -3.997  -0.906   4.133  1.00  0.00    -0.205 F 
ATOM     36  I   UNL     1      -8.625  -0.648   1.434  1.00  0.00    -0.044 I 
ENDBRANCH  27  29
ENDBRANCH   5  27
BRANCH  12  37
ATOM     37  C   UNL     1      -0.977   3.569   1.589  1.00  0.00    +0.096 C 
ATOM     38  C   UNL     1      -2.447   3.897   1.693  1.00  0.00    +0.028 C 
ATOM     39  C   UNL     1      -1.568   4.704   0.788  1.00  0.00    +0.028 C 
ENDBRANCH  12  37
TORSDOF 5
