REMARK SMILES CC(=O)Nc1cccc(-n2c(=O)n(C3CC3)c(=O)c3c(Nc4ccc(I)cc4F)n(C)c(=O)c(C)c32)c1
REMARK SMILES IDX 35 1 34 2 36 3 19 4 20 5 30 6 32 7 33 8 31 9 17 10 18 11
REMARK SMILES IDX 13 12 11 13 12 14 10 15 9 16 8 17 37 18 7 19 5 20 6 21 4 22
REMARK SMILES IDX 2 23 3 24 1 26 21 27 22 29 28 30 23 31 27 32 24 33 25 34
REMARK SMILES IDX 29 35 26 36 14 37 15 38 16 39
REMARK H PARENT 4 25 21 28
ROOT
ATOM      1  C   UNL     1      -1.550   1.996   1.781  1.00  0.00    +0.053 C 
ATOM      2  C   UNL     1      -0.551   0.960   1.340  1.00  0.00    +0.040 C 
ATOM      3  C   UNL     1      -0.402   0.418   0.109  1.00  0.00    +0.076 C 
ATOM      4  C   UNL     1       0.795  -0.349  -0.178  1.00  0.00    +0.106 C 
ATOM      5  C   UNL     1       1.703  -0.686   0.773  1.00  0.00    +0.128 C 
ATOM      6  N   UNL     1       1.430  -0.301   2.088  1.00  0.00    -0.297 N 
ATOM      7  C   UNL     1       0.397   0.559   2.431  1.00  0.00    +0.256 C 
ATOM      8  O   UNL     1       0.234   0.995   3.570  1.00  0.00    -0.269 OA
ATOM      9  C   UNL     1       2.269  -0.794   3.177  1.00  0.00    +0.155 C 
ATOM     10  C   UNL     1       1.063  -0.713  -1.593  1.00  0.00    +0.268 C 
ATOM     11  O   UNL     1       1.780  -1.669  -1.892  1.00  0.00    -0.268 OA
ATOM     12  N   UNL     1       0.453   0.121  -2.506  1.00  0.00    -0.256 N 
ATOM     13  C   UNL     1      -0.881   0.481  -2.310  1.00  0.00    +0.336 C 
ATOM     14  O   UNL     1      -1.631   0.630  -3.281  1.00  0.00    -0.247 OA
ATOM     15  N   UNL     1      -1.305   0.595  -0.958  1.00  0.00    -0.261 N 
ENDROOT
BRANCH  15  16
ATOM     16  C   UNL     1      -2.736   0.696  -0.742  1.00  0.00    +0.053 A 
ATOM     17  C   UNL     1      -3.529   1.579  -1.486  1.00  0.00    +0.027 A 
ATOM     18  C   UNL     1      -3.360  -0.117   0.224  1.00  0.00    +0.053 A 
ATOM     19  C   UNL     1      -4.904   1.659  -1.261  1.00  0.00    +0.004 A 
ATOM     20  C   UNL     1      -4.736  -0.042   0.460  1.00  0.00    +0.043 A 
ATOM     21  C   UNL     1      -5.502   0.855  -0.291  1.00  0.00    +0.026 A 
BRANCH  20  22
ATOM     22  N   UNL     1      -5.416  -0.825   1.417  1.00  0.00    -0.326 N 
ATOM     23  C   UNL     1      -4.870  -1.751   2.287  1.00  0.00    +0.221 C 
ATOM     24  O   UNL     1      -3.686  -2.047   2.400  1.00  0.00    -0.275 OA
ATOM     25  H   UNL     1      -6.416  -0.677   1.480  1.00  0.00    +0.169 HD
ATOM     26  C   UNL     1      -5.912  -2.390   3.171  1.00  0.00    +0.114 C 
ENDBRANCH  20  22
ENDBRANCH  15  16
BRANCH   5  27
ATOM     27  N   UNL     1       2.868  -1.404   0.484  1.00  0.00    -0.338 N 
ATOM     28  H   UNL     1       2.746  -1.996  -0.355  1.00  0.00    +0.168 HD
BRANCH  27  29
ATOM     29  C   UNL     1       4.156  -0.799   0.353  1.00  0.00    +0.076 A 
ATOM     30  C   UNL     1       5.213  -1.572  -0.160  1.00  0.00    +0.147 A 
ATOM     31  C   UNL     1       4.451   0.498   0.789  1.00  0.00    +0.030 A 
ATOM     32  C   UNL     1       6.508  -1.074  -0.275  1.00  0.00    +0.056 A 
ATOM     33  C   UNL     1       5.750   1.012   0.680  1.00  0.00    +0.017 A 
ATOM     34  C   UNL     1       6.771   0.224   0.147  1.00  0.00    +0.016 A 
ATOM     35  F   UNL     1       4.972  -2.829  -0.567  1.00  0.00    -0.205 F 
ATOM     36  I   UNL     1       8.693   0.994  -0.012  1.00  0.00    -0.044 I 
ENDBRANCH  27  29
ENDBRANCH   5  27
BRANCH  12  37
ATOM     37  C   UNL     1       0.921   0.040  -3.881  1.00  0.00    +0.096 C 
ATOM     38  C   UNL     1       1.157   1.287  -4.697  1.00  0.00    +0.028 C 
ATOM     39  C   UNL     1       2.323   0.458  -4.255  1.00  0.00    +0.028 C 
ENDBRANCH  12  37
TORSDOF 5
