REMARK SMILES C[C@]1(c2nc3c(C(N)=O)cccc3[nH]2)CCCN1
REMARK SMILES IDX 3 1 4 2 5 3 6 4 10 5 11 6 12 7 13 8 14 9 2 11 15 12 18 13
REMARK SMILES IDX 16 14 17 15 1 16 7 18 9 19 8 20
REMARK H PARENT 14 10 18 17 8 21 8 22
ROOT
ATOM      1  C   UNL     1      -0.268  -0.037   0.261  1.00  0.00    +0.127 A 
ATOM      2  N   UNL     1       0.868   0.578  -0.008  1.00  0.00    -0.231 NA
ATOM      3  C   UNL     1       1.869  -0.354   0.223  1.00  0.00    +0.101 A 
ATOM      4  C   UNL     1       3.269  -0.251   0.103  1.00  0.00    +0.067 A 
ATOM      5  C   UNL     1       4.053  -1.379   0.408  1.00  0.00    +0.016 A 
ATOM      6  C   UNL     1       3.462  -2.577   0.821  1.00  0.00    +0.003 A 
ATOM      7  C   UNL     1       2.075  -2.694   0.944  1.00  0.00    +0.028 A 
ATOM      8  C   UNL     1       1.315  -1.563   0.637  1.00  0.00    +0.066 A 
ATOM      9  N   UNL     1      -0.034  -1.335   0.649  1.00  0.00    -0.340 N 
ATOM     10  H   UNL     1      -0.766  -1.984   0.903  1.00  0.00    +0.168 HD
ENDROOT
BRANCH   1  11
ATOM     11  C   UNL     1      -1.665   0.516   0.162  1.00  0.00    +0.074 C 
ATOM     12  C   UNL     1      -2.201   0.373  -1.264  1.00  0.00    +0.031 C 
ATOM     13  N   UNL     1      -2.612  -0.314   0.939  1.00  0.00    -0.305 NA
ATOM     14  C   UNL     1      -3.710   0.295  -1.101  1.00  0.00    +0.018 C 
ATOM     15  C   UNL     1      -3.937  -0.125   0.343  1.00  0.00    +0.082 C 
ATOM     16  C   UNL     1      -1.693   1.975   0.647  1.00  0.00    +0.037 C 
ATOM     17  H   UNL     1      -2.623  -0.008   1.912  1.00  0.00    +0.123 HD
ENDBRANCH   1  11
BRANCH   4  18
ATOM     18  C   UNL     1       3.934   1.000  -0.331  1.00  0.00    +0.250 C 
ATOM     19  O   UNL     1       5.153   1.078  -0.432  1.00  0.00    -0.269 OA
ATOM     20  N   UNL     1       3.136   2.070  -0.616  1.00  0.00    -0.366 N 
ATOM     21  H   UNL     1       3.560   2.934  -0.917  1.00  0.00    +0.159 HD
ATOM     22  H   UNL     1       2.124   2.004  -0.535  1.00  0.00    +0.159 HD
ENDBRANCH   4  18
TORSDOF 2
