REMARK SMILES C[C@]1(c2nc3c(C(N)=O)cccc3[nH]2)CCCN1
REMARK SMILES IDX 3 1 4 2 5 3 6 4 10 5 11 6 12 7 13 8 14 9 2 11 15 12 18 13
REMARK SMILES IDX 16 14 17 15 1 16 7 18 9 19 8 20
REMARK H PARENT 14 10 18 17 8 21 8 22
ROOT
ATOM      1  C   UNL     1      -0.296  -0.036   0.334  1.00  0.00    +0.127 A 
ATOM      2  N   UNL     1       0.796   0.663   0.087  1.00  0.00    -0.231 NA
ATOM      3  C   UNL     1       1.770  -0.263  -0.252  1.00  0.00    +0.101 A 
ATOM      4  C   UNL     1       3.122  -0.088  -0.610  1.00  0.00    +0.067 A 
ATOM      5  C   UNL     1       3.889  -1.230  -0.910  1.00  0.00    +0.016 A 
ATOM      6  C   UNL     1       3.330  -2.509  -0.855  1.00  0.00    +0.003 A 
ATOM      7  C   UNL     1       1.990  -2.699  -0.501  1.00  0.00    +0.028 A 
ATOM      8  C   UNL     1       1.247  -1.553  -0.208  1.00  0.00    +0.066 A 
ATOM      9  N   UNL     1      -0.059  -1.379   0.164  1.00  0.00    -0.340 N 
ATOM     10  H   UNL     1      -0.763  -2.091   0.305  1.00  0.00    +0.168 HD
ENDROOT
BRANCH   1  11
ATOM     11  C   UNL     1      -1.656   0.486   0.738  1.00  0.00    +0.074 C 
ATOM     12  C   UNL     1      -2.319   1.211  -0.446  1.00  0.00    +0.031 C 
ATOM     13  N   UNL     1      -2.553  -0.657   1.062  1.00  0.00    -0.305 NA
ATOM     14  C   UNL     1      -3.312   0.199  -0.988  1.00  0.00    +0.018 C 
ATOM     15  C   UNL     1      -3.775  -0.499   0.270  1.00  0.00    +0.082 C 
ATOM     16  C   UNL     1      -1.510   1.415   1.950  1.00  0.00    +0.037 C 
ATOM     17  H   UNL     1      -2.783  -0.657   2.056  1.00  0.00    +0.123 HD
ENDBRANCH   1  11
BRANCH   4  18
ATOM     18  C   UNL     1       3.753   1.250  -0.680  1.00  0.00    +0.250 C 
ATOM     19  O   UNL     1       4.930   1.390  -0.994  1.00  0.00    -0.269 OA
ATOM     20  N   UNL     1       2.973   2.329  -0.382  1.00  0.00    -0.366 N 
ATOM     21  H   UNL     1       3.375   3.253  -0.420  1.00  0.00    +0.159 HD
ATOM     22  H   UNL     1       1.996   2.212  -0.122  1.00  0.00    +0.159 HD
ENDBRANCH   4  18
TORSDOF 2
