REMARK SMILES Cc1nc2c(C(=O)NC3(C)CCCN3)cccc2[nH]1
REMARK SMILES IDX 8 1 6 2 7 3 9 5 11 6 14 7 12 8 13 9 10 10 5 12 15 13 4 14
REMARK SMILES IDX 16 15 3 16 18 17 17 18 2 19 19 20 1 21
REMARK H PARENT 8 4 14 11 19 22
ROOT
ATOM      1  N   UNL     1      -1.307   0.034  -0.696  1.00  0.00    -0.334 N 
ATOM      2  C   UNL     1      -0.073   0.280   0.004  1.00  0.00    +0.254 C 
ATOM      3  O   UNL     1       0.102   1.376   0.603  1.00  0.00    -0.269 OA
ATOM      4  H   UNL     1      -1.363  -0.811  -1.308  1.00  0.00    +0.165 HD
ENDROOT
BRANCH   1   5
ATOM      5  C   UNL     1      -2.478   0.925  -0.608  1.00  0.00    +0.088 C 
ATOM      6  C   UNL     1      -3.726   0.212  -1.136  1.00  0.00    +0.046 C 
ATOM      7  N   UNL     1      -2.761   1.219   0.803  1.00  0.00    -0.295 NA
ATOM      8  C   UNL     1      -4.233  -0.564   0.059  1.00  0.00    +0.019 C 
ATOM      9  C   UNL     1      -3.642   0.146   1.274  1.00  0.00    +0.083 C 
ATOM     10  C   UNL     1      -2.206   2.211  -1.414  1.00  0.00    +0.052 C 
ATOM     11  H   UNL     1      -3.298   2.117   0.869  1.00  0.00    +0.124 HD
ENDBRANCH   1   5
BRANCH   2  12
ATOM     12  C   UNL     1       1.003  -0.739   0.029  1.00  0.00    +0.067 A 
ATOM     13  C   UNL     1       0.719  -2.122  -0.084  1.00  0.00    +0.016 A 
ATOM     14  C   UNL     1       2.350  -0.381   0.193  1.00  0.00    +0.101 A 
ATOM     15  C   UNL     1       1.757  -3.079  -0.050  1.00  0.00    +0.003 A 
ATOM     16  N   UNL     1       2.873   0.855   0.308  1.00  0.00    -0.233 NA
ATOM     17  C   UNL     1       3.346  -1.314   0.223  1.00  0.00    +0.066 A 
ATOM     18  C   UNL     1       3.095  -2.677   0.102  1.00  0.00    +0.028 A 
ATOM     19  C   UNL     1       4.205   0.614   0.424  1.00  0.00    +0.104 A 
ATOM     20  N   UNL     1       4.527  -0.701   0.365  1.00  0.00    -0.342 N 
ATOM     21  C   UNL     1       5.222   1.701   0.523  1.00  0.00    +0.087 C 
ATOM     22  H   UNL     1       5.477  -1.134   0.408  1.00  0.00    +0.168 HD
ENDBRANCH   2  12
TORSDOF 2
