REMARK SMILES C[C@]1(c2nc3c(C(N)=O)cccc3[nH]2)CCCN1
REMARK SMILES IDX 3 1 4 2 5 3 6 4 10 5 11 6 12 7 13 8 14 9 2 11 15 12 18 13
REMARK SMILES IDX 16 14 17 15 1 16 7 18 9 19 8 20
REMARK H PARENT 14 10 18 17 8 21 8 22
ROOT
ATOM      1  C   UNL     1      -0.424   0.282   0.297  1.00  0.00    +0.127 A 
ATOM      2  N   UNL     1       0.598  -0.497  -0.012  1.00  0.00    -0.231 NA
ATOM      3  C   UNL     1       1.674   0.348  -0.225  1.00  0.00    +0.101 A 
ATOM      4  C   UNL     1       3.009   0.071  -0.585  1.00  0.00    +0.067 A 
ATOM      5  C   UNL     1       3.901   1.150  -0.731  1.00  0.00    +0.016 A 
ATOM      6  C   UNL     1       3.480   2.466  -0.527  1.00  0.00    +0.003 A 
ATOM      7  C   UNL     1       2.159   2.756  -0.172  1.00  0.00    +0.028 A 
ATOM      8  C   UNL     1       1.289   1.672  -0.032  1.00  0.00    +0.066 A 
ATOM      9  N   UNL     1      -0.040   1.602   0.298  1.00  0.00    -0.340 N 
ATOM     10  H   UNL     1      -0.636   2.390   0.507  1.00  0.00    +0.168 HD
ENDROOT
BRANCH   1  11
ATOM     11  C   UNL     1      -1.838  -0.160   0.620  1.00  0.00    +0.074 C 
ATOM     12  C   UNL     1      -2.846   0.367  -0.420  1.00  0.00    +0.031 C 
ATOM     13  N   UNL     1      -1.949  -1.634   0.542  1.00  0.00    -0.305 NA
ATOM     14  C   UNL     1      -3.466  -0.877  -1.041  1.00  0.00    +0.018 C 
ATOM     15  C   UNL     1      -2.426  -1.948  -0.803  1.00  0.00    +0.082 C 
ATOM     16  C   UNL     1      -2.218   0.258   2.044  1.00  0.00    +0.037 C 
ATOM     17  H   UNL     1      -1.017  -2.032   0.676  1.00  0.00    +0.123 HD
ENDBRANCH   1  11
BRANCH   4  18
ATOM     18  C   UNL     1       3.496  -1.310  -0.813  1.00  0.00    +0.250 C 
ATOM     19  O   UNL     1       4.662  -1.537  -1.114  1.00  0.00    -0.269 OA
ATOM     20  N   UNL     1       2.594  -2.325  -0.677  1.00  0.00    -0.366 N 
ATOM     21  H   UNL     1       1.629  -2.137  -0.416  1.00  0.00    +0.159 HD
ATOM     22  H   UNL     1       2.901  -3.276  -0.814  1.00  0.00    +0.159 HD
ENDBRANCH   4  18
TORSDOF 2
