REMARK SMILES CCC1(O)C[C@@H]2C[C@@](C(=O)OC)(C1)c1c([nH]c3ccccc13)[C@]1(O)C[C@H]2N(C)c2ccccc2[C@]12C=CCN1CC[C@]12CC
REMARK SMILES IDX 23 1 15 3 14 4 22 5 16 6 21 7 17 8 20 9 18 10 19 11 8 13
REMARK SMILES IDX 3 14 5 15 13 16 6 17 7 18 2 20 1 21 4 22 9 24 10 25 11 26
REMARK SMILES IDX 12 27 24 28 35 30 36 31 42 32 37 33 41 34 39 35 38 36 40 37
REMARK SMILES IDX 34 38 33 39 29 40 32 41 30 42 31 43 27 44 28 45 26 46 25 48
REMARK SMILES IDX 43 50 44 51
REMARK H PARENT 16 12 4 23 24 29
REMARK Flexibility Score:   67.800
ROOT
ATOM      1  C   UNL     1      -1.237  -0.886   0.897  1.00  0.00    +0.121 CG1
ATOM      2  G   UNL     1      -0.282  -2.147   1.002  1.00  0.00    +0.000 G1
ENDROOT
BRANCH   1   3
ATOM      3  C   UNL     1      -0.611   0.440   1.565  1.00  0.00    +0.054 A 
ATOM      4  C   UNL     1       0.679   1.155   1.540  1.00  0.00    +0.001 A 
ATOM      5  C   UNL     1       0.416   2.383   2.161  1.00  0.00    +0.004 A 
ATOM      6  N   UNL     1      -1.430   1.181   2.368  1.00  0.00    -0.356 N 
ATOM      7  C   UNL     1       1.204   3.537   2.314  1.00  0.00    +0.010 A 
ATOM      8  C   UNL     1      -0.836   2.332   2.676  1.00  0.00    +0.046 A 
ATOM      9  C   UNL     1       0.677   4.617   3.043  1.00  0.00    +0.001 A 
ATOM     10  C   UNL     1      -1.387   3.379   3.416  1.00  0.00    +0.026 A 
ATOM     11  C   UNL     1      -0.613   4.535   3.600  1.00  0.00    +0.002 A 
ATOM     12  H   UNL     1      -2.342   0.908   2.780  1.00  0.00    +0.166 HD
BRANCH   4  13
ATOM     13  C   UNL     1       2.149   0.796   1.137  1.00  0.00    +0.098 C 
ATOM     14  C   UNL     1       3.218   0.615  -1.336  1.00  0.00    +0.066 C 
ATOM     15  C   UNL     1       2.599  -0.841  -1.425  1.00  0.00    +0.041 C 
ATOM     16  C   UNL     1       2.512   1.507  -0.233  1.00  0.00    +0.059 C 
ATOM     17  C   UNL     1       1.617  -1.105  -0.275  1.00  0.00    +0.016 CG0
ATOM     18  C   UNL     1       2.307  -0.707   1.018  1.00  0.00    +0.029 C 
ATOM     19  G   UNL     1       0.785  -2.389  -0.106  1.00  0.00    +0.000 G0
BRANCH  14  20
ATOM     20  C   UNL     1       4.753   0.554  -1.061  1.00  0.00    +0.032 C 
ATOM     21  C   UNL     1       5.570   0.023  -2.245  1.00  0.00    +0.007 C 
ENDBRANCH  14  20
BRANCH  14  22
ATOM     22  O   UNL     1       3.010   1.237  -2.586  1.00  0.00    -0.390 OA
ATOM     23  H   UNL     1       3.386   2.156  -2.540  1.00  0.00    +0.211 HD
ENDBRANCH  14  22
BRANCH  13  24
ATOM     24  C   UNL     1       3.124   1.198   2.238  1.00  0.00    +0.316 C 
ATOM     25  O   UNL     1       2.812   1.014   3.449  1.00  0.00    -0.251 OA
BRANCH  24  26
ATOM     26  O   UNL     1       4.395   1.685   1.914  1.00  0.00    -0.468 OA
ATOM     27  C   UNL     1       5.350   2.055   2.900  1.00  0.00    +0.282 C 
ENDBRANCH  24  26
ENDBRANCH  13  24
ENDBRANCH   4  13
ENDBRANCH   1   3
BRANCH   1  28
ATOM     28  O   UNL     1      -2.289  -1.266   1.756  1.00  0.00    -0.382 OA
ATOM     29  H   UNL     1      -1.940  -1.409   2.678  1.00  0.00    +0.211 HD
ENDBRANCH   1  28
BRANCH   1  30
ATOM     30  C   UNL     1      -1.981  -0.733  -0.584  1.00  0.00    +0.068 C 
ATOM     31  C   UNL     1      -1.084  -0.155  -1.682  1.00  0.00    -0.013 C 
ATOM     32  C   UNL     1      -3.303   0.274  -0.582  1.00  0.00    +0.039 C 
ATOM     33  C   UNL     1      -0.880   1.147  -1.851  1.00  0.00    -0.015 C 
ATOM     34  C   UNL     1      -4.077   0.307  -1.929  1.00  0.00    +0.039 C 
ATOM     35  N   UNL     1      -2.991   1.733  -0.727  1.00  0.00    -0.293 NA
ATOM     36  C   UNL     1      -1.605   2.140  -1.015  1.00  0.00    +0.112 C 
ATOM     37  C   UNL     1      -3.800   1.787  -1.954  1.00  0.00    +0.087 C 
BRANCH  30  38
ATOM     38  C   UNL     1      -2.304  -2.199  -1.111  1.00  0.00    -0.009 A 
ATOM     39  C   UNL     1      -3.634  -2.633  -1.358  1.00  0.00    +0.007 A 
ATOM     40  C   UNL     1      -1.269  -3.171  -1.415  1.00  0.00    +0.041 A 
ATOM     41  C   UNL     1      -3.956  -3.934  -1.728  1.00  0.00    +0.000 A 
ATOM     42  C   UNL     1      -1.638  -4.498  -1.748  1.00  0.00    +0.026 A 
ATOM     43  C   UNL     1      -2.962  -4.872  -1.897  1.00  0.00    +0.002 A 
BRANCH  40  44
ATOM     44  N   UNL     1       0.157  -2.865  -1.357  1.00  0.00    -0.371 N 
ATOM     45  C   UNL     1       1.024  -3.561  -2.328  1.00  0.00    +0.144 C 
BRANCH  44  46
ATOM     46  C   UNL     1       0.785  -2.389  -0.106  1.00  0.00    +0.088 CG0
ATOM     47  G   UNL     1       1.617  -1.105  -0.275  1.00  0.00    +0.000 G0
BRANCH  46  48
ATOM     48  C   UNL     1      -0.282  -2.147   1.002  1.00  0.00    +0.068 CG1
ATOM     49  G   UNL     1      -1.237  -0.886   0.897  1.00  0.00    +0.000 G1
ENDBRANCH  46  48
ENDBRANCH  44  46
ENDBRANCH  40  44
ENDBRANCH  30  38
BRANCH  32  50
ATOM     50  C   UNL     1      -4.348   0.213   0.605  1.00  0.00    +0.020 C 
ATOM     51  C   UNL     1      -5.136  -1.064   0.912  1.00  0.00    +0.006 C 
ENDBRANCH  32  50
ENDBRANCH   1  30
TORSDOF 6
