REMARK SMILES CCC1=C[C@@H]2C[C@@](C(=O)OC)(C1)c1c([nH]c3ccccc13)[C@@]1(CO2)C[C@H]2N(C)c3ccccc3[C@@]23C=CCN2CC[C@]13[C@H]2CC
REMARK SMILES IDX 13 1 14 2 15 3 16 4 17 5 18 6 19 7 20 8 21 9 7 11 3 12 4 13
REMARK SMILES IDX 12 14 5 15 6 16 2 17 1 18 24 19 23 20 8 22 9 23 10 24 11 25
REMARK SMILES IDX 22 26 25 27 42 28 26 29 41 30 43 31 35 32 27 33 40 34 39 35
REMARK SMILES IDX 34 36 29 37 33 38 30 39 32 40 31 41 28 42 44 44 45 45 36 46
REMARK SMILES IDX 37 47 38 49
REMARK H PARENT 15 10
REMARK Flexibility Score:   23.800
ROOT
ATOM      1  C   UNL     1       2.122   0.860  -0.354  1.00  0.00    -0.001 A 
ATOM      2  C   UNL     1       0.664   1.019  -0.229  1.00  0.00    +0.030 A 
ATOM      3  N   UNL     1       0.270   1.733  -1.326  1.00  0.00    -0.358 N 
ATOM      4  C   UNL     1       1.323   1.974  -2.106  1.00  0.00    +0.046 A 
ATOM      5  C   UNL     1       1.311   2.623  -3.341  1.00  0.00    +0.026 A 
ATOM      6  C   UNL     1       2.523   2.737  -4.040  1.00  0.00    +0.002 A 
ATOM      7  C   UNL     1       3.704   2.194  -3.500  1.00  0.00    +0.001 A 
ATOM      8  C   UNL     1       3.679   1.541  -2.255  1.00  0.00    +0.010 A 
ATOM      9  C   UNL     1       2.456   1.457  -1.570  1.00  0.00    +0.004 A 
ATOM     10  H   UNL     1      -0.697   2.034  -1.577  1.00  0.00    +0.166 HD
ENDROOT
BRANCH   1  11
ATOM     11  C   UNL     1       3.222   0.159   0.497  1.00  0.00    +0.102 C 
ATOM     12  C   UNL     1       3.483  -2.490   0.507  1.00  0.00    -0.070 C 
ATOM     13  C   UNL     1       2.423  -2.577   1.352  1.00  0.00    +0.004 C 
ATOM     14  C   UNL     1       3.766  -1.158  -0.234  1.00  0.00    +0.054 C 
ATOM     15  C   UNL     1       1.629  -1.328   1.498  1.00  0.00    +0.142 C 
ATOM     16  C   UNL     1       2.630  -0.209   1.828  1.00  0.00    +0.060 C 
BRANCH  12  17
ATOM     17  C   UNL     1       4.329  -3.704   0.225  1.00  0.00    +0.027 C 
ATOM     18  C   UNL     1       5.104  -4.147   1.461  1.00  0.00    +0.008 C 
ENDBRANCH  12  17
BRANCH  15  19
ATOM     19  O   UNL     1       0.545  -1.352   2.356  1.00  0.00    -0.373 OA
BRANCH  19  20
ATOM     20  C   UNL     1      -0.157  -0.112   2.243  1.00  0.00    +0.175 CG0
ATOM     21  G   UNL     1      -0.494   0.540   0.789  1.00  0.00    +0.000 G0
ENDBRANCH  19  20
ENDBRANCH  15  19
BRANCH  11  22
ATOM     22  C   UNL     1       4.356   1.129   0.804  1.00  0.00    +0.316 C 
ATOM     23  O   UNL     1       4.119   2.368   0.895  1.00  0.00    -0.251 OA
BRANCH  22  24
ATOM     24  O   UNL     1       5.636   0.640   1.098  1.00  0.00    -0.468 OA
ATOM     25  C   UNL     1       6.716   1.492   1.461  1.00  0.00    +0.282 C 
ENDBRANCH  22  24
ENDBRANCH  11  22
ENDBRANCH   1  11
BRANCH   2  26
ATOM     26  C   UNL     1      -0.494   0.540   0.789  1.00  0.00    +0.045 CG0
ATOM     27  C   UNL     1      -1.167   1.928   1.152  1.00  0.00    +0.042 C 
ATOM     28  C   UNL     1      -1.719  -0.323   0.087  1.00  0.00    +0.016 C 
ATOM     29  C   UNL     1      -2.590   1.567   1.369  1.00  0.00    +0.098 C 
ATOM     30  C   UNL     1      -2.118  -1.698   0.667  1.00  0.00    +0.026 C 
ATOM     31  C   UNL     1      -1.440  -0.785  -1.414  1.00  0.00    +0.065 C 
ATOM     32  C   UNL     1      -3.022   0.626   0.242  1.00  0.00    +0.044 C 
ATOM     33  N   UNL     1      -3.640   2.564   1.501  1.00  0.00    -0.370 N 
ATOM     34  C   UNL     1      -2.750  -2.459  -0.525  1.00  0.00    +0.086 C 
ATOM     35  N   UNL     1      -2.578  -1.639  -1.740  1.00  0.00    -0.296 NA
ATOM     36  C   UNL     1      -4.434   0.464   0.839  1.00  0.00    -0.012 A 
ATOM     37  C   UNL     1      -4.780   1.708   1.390  1.00  0.00    +0.041 A 
ATOM     38  C   UNL     1      -5.381  -0.570   0.846  1.00  0.00    +0.007 A 
ATOM     39  C   UNL     1      -6.044   1.953   1.931  1.00  0.00    +0.026 A 
ATOM     40  C   UNL     1      -6.656  -0.334   1.384  1.00  0.00    +0.000 A 
ATOM     41  C   UNL     1      -6.991   0.923   1.910  1.00  0.00    +0.002 A 
ATOM     42  C   UNL     1      -3.565   3.777   2.312  1.00  0.00    +0.144 C 
ATOM     43  G   UNL     1      -0.157  -0.112   2.243  1.00  0.00    +0.000 G0
BRANCH  31  44
ATOM     44  C   UNL     1      -0.149  -1.617  -1.709  1.00  0.00    +0.016 C 
ATOM     45  C   UNL     1      -0.140  -2.189  -3.131  1.00  0.00    +0.005 C 
ENDBRANCH  31  44
BRANCH  32  46
ATOM     46  C   UNL     1      -3.298   1.316  -1.087  1.00  0.00    -0.016 C 
ATOM     47  C   UNL     1      -3.721   0.619  -2.162  1.00  0.00    -0.015 CG1
ATOM     48  G   UNL     1      -3.800  -0.907  -2.198  1.00  0.00    +0.000 G1
ENDBRANCH  32  46
BRANCH  35  49
ATOM     49  C   UNL     1      -3.800  -0.907  -2.198  1.00  0.00    +0.112 CG1
ATOM     50  G   UNL     1      -3.721   0.619  -2.162  1.00  0.00    +0.000 G1
ENDBRANCH  35  49
ENDBRANCH   2  26
TORSDOF 4
