REMARK SMILES CCc1c2c(nc3cc(O)ccc13)-c1cc3ccc(O)cc3c(=O)n1C2
REMARK SMILES IDX 3 1 4 2 26 3 25 4 14 5 15 6 16 7 22 8 23 9 24 10 21 11 19 12
REMARK SMILES IDX 18 13 17 14 5 15 6 16 7 17 13 18 12 19 11 20 9 21 8 22 2 23
REMARK SMILES IDX 1 24 10 25 20 27
REMARK H PARENT 10 26 20 28
ROOT
ATOM      1  C   UNL     1      -2.319  -0.708   0.549  1.00  0.00    -0.032 A 
ATOM      2  C   UNL     1      -0.932  -0.638   0.548  1.00  0.00    +0.004 A 
ATOM      3  C   UNL     1       0.107  -1.653   0.927  1.00  0.00    +0.164 C 
ATOM      4  N   UNL     1       1.363  -0.938   0.686  1.00  0.00    -0.302 N 
ATOM      5  C   UNL     1       1.131   0.342   0.224  1.00  0.00    +0.071 C 
ATOM      6  C   UNL     1       2.120   1.192  -0.068  1.00  0.00    +0.037 C 
ATOM      7  C   UNL     1       3.500   0.731   0.116  1.00  0.00    -0.010 A 
ATOM      8  C   UNL     1       3.755  -0.573   0.587  1.00  0.00    +0.051 A 
ATOM      9  C   UNL     1       2.610  -1.479   0.897  1.00  0.00    +0.259 C 
ATOM     10  O   UNL     1       2.797  -2.619   1.309  1.00  0.00    -0.269 OA
ATOM     11  C   UNL     1       5.066  -1.027   0.767  1.00  0.00    +0.060 A 
ATOM     12  C   UNL     1       6.120  -0.171   0.474  1.00  0.00    +0.116 A 
ATOM     13  C   UNL     1       5.887   1.120   0.007  1.00  0.00    +0.047 A 
ATOM     14  C   UNL     1       4.577   1.574  -0.172  1.00  0.00    +0.013 A 
ATOM     15  C   UNL     1      -0.313   0.535   0.135  1.00  0.00    +0.093 A 
ATOM     16  N   UNL     1      -0.928   1.647  -0.280  1.00  0.00    -0.246 NA
ATOM     17  C   UNL     1      -2.270   1.596  -0.294  1.00  0.00    +0.075 A 
ATOM     18  C   UNL     1      -3.025   0.447   0.105  1.00  0.00    +0.004 A 
ATOM     19  C   UNL     1      -4.435   0.520   0.034  1.00  0.00    +0.014 A 
ATOM     20  C   UNL     1      -5.080   1.675  -0.406  1.00  0.00    +0.047 A 
ATOM     21  C   UNL     1      -4.327   2.772  -0.781  1.00  0.00    +0.117 A 
ATOM     22  C   UNL     1      -2.938   2.732  -0.725  1.00  0.00    +0.075 A 
ENDROOT
BRANCH   1  23
ATOM     23  C   UNL     1      -3.003  -1.983   0.981  1.00  0.00    +0.033 C 
ATOM     24  C   UNL     1      -3.327  -2.886  -0.200  1.00  0.00    +0.009 C 
ENDBRANCH   1  23
BRANCH  21  25
ATOM     25  O   UNL     1      -4.992   3.884  -1.205  1.00  0.00    -0.508 OA
ATOM     26  H   UNL     1      -4.342   4.570  -1.434  1.00  0.00    +0.293 HD
ENDBRANCH  21  25
BRANCH  12  27
ATOM     27  O   UNL     1       7.417  -0.562   0.631  1.00  0.00    -0.508 OA
ATOM     28  H   UNL     1       7.431  -1.476   0.959  1.00  0.00    +0.293 HD
ENDBRANCH  12  27
TORSDOF 3
