REMARK SMILES CCc1c2c(nc3ccc(O)cc13)-c1cc3c(c(=O)n1C2)COC(=O)C3(O)CC
REMARK SMILES IDX 3 1 4 2 5 3 6 4 7 5 8 6 9 7 10 8 12 9 13 10 14 11 15 12
REMARK SMILES IDX 16 13 17 14 18 15 19 16 20 17 21 18 22 19 23 20 24 21 25 22
REMARK SMILES IDX 26 23 2 24 1 25 11 26 27 28 28 30 29 31
REMARK H PARENT 11 27 27 29
ROOT
ATOM      1  C   UNL     1       3.020   0.021   0.623  1.00  0.00    -0.031 A 
ATOM      2  C   UNL     1       1.779  -0.420   0.186  1.00  0.00    +0.004 A 
ATOM      3  C   UNL     1       0.686   0.435   0.275  1.00  0.00    +0.093 A 
ATOM      4  N   UNL     1       0.699   1.682   0.755  1.00  0.00    -0.246 NA
ATOM      5  C   UNL     1       1.893   2.129   1.173  1.00  0.00    +0.072 A 
ATOM      6  C   UNL     1       1.947   3.425   1.669  1.00  0.00    +0.033 A 
ATOM      7  C   UNL     1       3.136   3.996   2.126  1.00  0.00    +0.048 A 
ATOM      8  C   UNL     1       4.299   3.247   2.082  1.00  0.00    +0.116 A 
ATOM      9  C   UNL     1       4.287   1.945   1.594  1.00  0.00    +0.056 A 
ATOM     10  C   UNL     1       3.092   1.350   1.131  1.00  0.00    +0.007 A 
ATOM     11  C   UNL     1      -0.480  -0.266  -0.248  1.00  0.00    +0.071 C 
ATOM     12  C   UNL     1      -1.749   0.130  -0.371  1.00  0.00    +0.036 C 
ATOM     13  C   UNL     1      -2.728  -0.792  -0.933  1.00  0.00    +0.009 C 
ATOM     14  C   UNL     1      -2.344  -2.017  -1.341  1.00  0.00    +0.062 C 
ATOM     15  C   UNL     1      -0.921  -2.463  -1.190  1.00  0.00    +0.258 C 
ATOM     16  O   UNL     1      -0.570  -3.587  -1.529  1.00  0.00    -0.269 OA
ATOM     17  N   UNL     1      -0.081  -1.527  -0.645  1.00  0.00    -0.302 N 
ATOM     18  C   UNL     1       1.351  -1.730  -0.410  1.00  0.00    +0.164 C 
ATOM     19  C   UNL     1      -3.287  -2.991  -1.952  1.00  0.00    +0.275 C 
ATOM     20  O   UNL     1      -4.480  -2.390  -2.500  1.00  0.00    -0.458 OA
ATOM     21  C   UNL     1      -4.841  -1.114  -2.243  1.00  0.00    +0.343 C 
ATOM     22  O   UNL     1      -5.722  -0.559  -2.902  1.00  0.00    -0.248 OA
ATOM     23  C   UNL     1      -4.177  -0.392  -1.048  1.00  0.00    +0.187 C 
ENDROOT
BRANCH   1  24
ATOM     24  C   UNL     1       4.219  -0.891   0.516  1.00  0.00    +0.033 C 
ATOM     25  C   UNL     1       5.001  -0.658  -0.769  1.00  0.00    +0.009 C 
ENDBRANCH   1  24
BRANCH   8  26
ATOM     26  O   UNL     1       5.489   3.754   2.512  1.00  0.00    -0.508 OA
ATOM     27  H   UNL     1       5.350   4.666   2.818  1.00  0.00    +0.293 HD
ENDBRANCH   8  26
BRANCH  23  28
ATOM     28  O   UNL     1      -4.263   1.020  -1.291  1.00  0.00    -0.374 OA
ATOM     29  H   UNL     1      -5.093   1.161  -1.791  1.00  0.00    +0.212 HD
ENDBRANCH  23  28
BRANCH  23  30
ATOM     30  C   UNL     1      -5.016  -0.723   0.207  1.00  0.00    +0.049 C 
ATOM     31  C   UNL     1      -4.587  -0.002   1.479  1.00  0.00    +0.008 C 
ENDBRANCH  23  30
TORSDOF 4
