REMARK SMILES O=C1NN=C2[C@@H]1Nc1ccc(F)cc1[C@@H]2c1ccc(C(F)(F)F)cc1
REMARK SMILES IDX 19 1 18 2 17 3 16 4 25 5 24 6 20 7 21 8 22 9 23 10 15 11
REMARK SMILES IDX 14 12 5 13 13 14 8 15 4 16 6 17 11 18 9 19 7 20 3 21 2 22
REMARK SMILES IDX 10 23 1 24 12 25
REMARK H PARENT 7 26 3 27
ROOT
ATOM      1  C   UNL     1       3.639  -0.258  -0.280  1.00  0.00    +0.056 A 
ATOM      2  C   UNL     1       2.588  -0.509  -1.173  1.00  0.00    +0.013 A 
ATOM      3  C   UNL     1       1.264  -0.253  -0.805  1.00  0.00    +0.005 A 
ATOM      4  C   UNL     1       0.961   0.277   0.459  1.00  0.00    -0.035 A 
ATOM      5  C   UNL     1       2.016   0.524   1.351  1.00  0.00    +0.005 A 
ATOM      6  C   UNL     1       3.339   0.267   0.984  1.00  0.00    +0.013 A 
ENDROOT
BRANCH   1   7
ATOM      7  C   UNL     1       5.070  -0.515  -0.687  1.00  0.00    +0.416 C 
ATOM      8  F   UNL     1       5.197  -1.548  -1.566  1.00  0.00    -0.166 F 
ATOM      9  F   UNL     1       5.879  -0.822   0.365  1.00  0.00    -0.166 F 
ATOM     10  F   UNL     1       5.637   0.564  -1.294  1.00  0.00    -0.166 F 
ENDBRANCH   1   7
BRANCH   4  11
ATOM     11  C   UNL     1      -0.471   0.542   0.912  1.00  0.00    +0.101 C 
ATOM     12  C   UNL     1      -1.400   1.061  -0.185  1.00  0.00    -0.009 A 
ATOM     13  C   UNL     1      -1.048  -0.690   1.535  1.00  0.00    +0.082 C 
ATOM     14  C   UNL     1      -1.137   2.314  -0.768  1.00  0.00    +0.046 A 
ATOM     15  C   UNL     1      -2.525   0.315  -0.614  1.00  0.00    +0.039 A 
ATOM     16  N   UNL     1      -0.964  -1.046   2.786  1.00  0.00    -0.178 NA
ATOM     17  C   UNL     1      -1.818  -1.628   0.657  1.00  0.00    +0.219 C 
ATOM     18  C   UNL     1      -1.985   2.821  -1.744  1.00  0.00    +0.123 A 
ATOM     19  C   UNL     1      -3.384   0.873  -1.573  1.00  0.00    +0.029 A 
ATOM     20  N   UNL     1      -2.895  -0.893  -0.004  1.00  0.00    -0.369 N 
ATOM     21  N   UNL     1      -1.698  -2.203   2.883  1.00  0.00    -0.245 N 
ATOM     22  C   UNL     1      -2.305  -2.612   1.698  1.00  0.00    +0.268 C 
ATOM     23  C   UNL     1      -3.108   2.114  -2.148  1.00  0.00    +0.041 A 
ATOM     24  O   UNL     1      -3.057  -3.558   1.539  1.00  0.00    -0.270 OA
ATOM     25  F   UNL     1      -1.723   4.014  -2.292  1.00  0.00    -0.207 F 
ATOM     26  H   UNL     1      -3.497  -1.488  -0.570  1.00  0.00    +0.161 HD
ATOM     27  H   UNL     1      -1.856  -2.646   3.781  1.00  0.00    +0.193 HD
ENDBRANCH   4  11
TORSDOF 2
