REMARK SMILES CC(=O)c1c(C)c2cnc(Nc3ccc(N4CCNCC4)cn3)nc2n1C1CCCC1
REMARK SMILES IDX 11 1 10 3 4 4 5 5 26 6 7 7 25 8 8 9 24 10 9 11 6 12 2 13
REMARK SMILES IDX 3 14 1 15 27 16 28 17 31 18 29 19 30 20 12 21 13 22 23 23
REMARK SMILES IDX 14 24 22 25 15 26 16 27 17 28 21 29 18 30 20 31 19 32
REMARK H PARENT 11 2 19 33
ROOT
ATOM      1  N   UNL     1       0.410  -0.977   1.151  1.00  0.00    -0.309 N 
ATOM      2  H   UNL     1      -0.096  -1.826   0.946  1.00  0.00    +0.171 HD
ENDROOT
BRANCH   1   3
ATOM      3  C   UNL     1      -0.476   0.076   0.920  1.00  0.00    +0.230 A 
ATOM      4  C   UNL     1      -4.495   1.871   0.059  1.00  0.00    +0.090 A 
ATOM      5  C   UNL     1      -3.471   2.796   0.297  1.00  0.00    -0.011 A 
ATOM      6  N   UNL     1      -3.927   0.602   0.158  1.00  0.00    -0.319 N 
ATOM      7  C   UNL     1      -2.277   2.057   0.546  1.00  0.00    +0.041 A 
ATOM      8  C   UNL     1      -2.589   0.716   0.468  1.00  0.00    +0.146 A 
ATOM      9  C   UNL     1      -0.953   2.354   0.850  1.00  0.00    +0.127 A 
ATOM     10  N   UNL     1      -1.738  -0.306   0.656  1.00  0.00    -0.194 NA
ATOM     11  N   UNL     1      -0.068   1.353   1.043  1.00  0.00    -0.221 NA
ATOM     12  C   UNL     1      -3.576   4.283   0.340  1.00  0.00    +0.047 C 
BRANCH   4  13
ATOM     13  C   UNL     1      -5.907   2.124  -0.213  1.00  0.00    +0.176 C 
ATOM     14  O   UNL     1      -6.810   1.427   0.250  1.00  0.00    -0.293 OA
ATOM     15  C   UNL     1      -6.255   3.302  -1.089  1.00  0.00    +0.095 C 
ENDBRANCH   4  13
BRANCH   6  16
ATOM     16  C   UNL     1      -4.604  -0.668  -0.068  1.00  0.00    +0.089 C 
ATOM     17  C   UNL     1      -4.611  -1.609   1.152  1.00  0.00    +0.025 C 
ATOM     18  C   UNL     1      -4.039  -1.490  -1.240  1.00  0.00    +0.025 C 
ATOM     19  C   UNL     1      -3.987  -2.915   0.670  1.00  0.00    +0.002 C 
ATOM     20  C   UNL     1      -4.266  -2.936  -0.823  1.00  0.00    +0.002 C 
ENDBRANCH   6  16
ENDBRANCH   1   3
BRANCH   1  21
ATOM     21  C   UNL     1       1.747  -1.052   0.730  1.00  0.00    +0.132 A 
ATOM     22  C   UNL     1       2.514  -2.117   1.192  1.00  0.00    +0.049 A 
ATOM     23  N   UNL     1       2.276  -0.144  -0.107  1.00  0.00    -0.237 NA
ATOM     24  C   UNL     1       3.850  -2.237   0.797  1.00  0.00    +0.031 A 
ATOM     25  C   UNL     1       3.579  -0.286  -0.471  1.00  0.00    +0.139 A 
ATOM     26  C   UNL     1       4.443  -1.297  -0.050  1.00  0.00    +0.055 A 
BRANCH  26  27
ATOM     27  N   UNL     1       5.774  -1.438  -0.448  1.00  0.00    -0.368 N 
ATOM     28  C   UNL     1       6.301  -0.621  -1.563  1.00  0.00    +0.132 C 
ATOM     29  C   UNL     1       6.768  -1.618   0.637  1.00  0.00    +0.132 C 
ATOM     30  C   UNL     1       6.908   0.712  -1.063  1.00  0.00    +0.102 C 
ATOM     31  C   UNL     1       7.342  -0.255   1.095  1.00  0.00    +0.102 C 
ATOM     32  N   UNL     1       7.930   0.536  -0.008  1.00  0.00    -0.313 NA
ATOM     33  H   UNL     1       8.702  -0.001  -0.404  1.00  0.00    +0.122 HD
ENDBRANCH  26  27
ENDBRANCH   1  21
TORSDOF 5
