REMARK SMILES NC(=O)c1c(OCC(O)CO)cc(F)c(Nc2ccc(I)cc2F)c1Cl
REMARK SMILES IDX 6 1 5 2 4 3 25 4 15 5 12 6 13 7 26 8 14 9 2 10 1 11 3 12
REMARK SMILES IDX 16 15 17 17 18 18 23 19 19 20 22 21 20 22 24 23 21 24 7 25
REMARK SMILES IDX 8 26 9 27 10 29 11 30
REMARK H PARENT 1 13 1 14 16 16 9 28 11 31
ROOT
ATOM      1  O   UNL     1       2.384  -1.301  -0.427  1.00  0.00    -0.490 OA
ENDROOT
BRANCH   1   2
ATOM      2  C   UNL     1       1.141  -0.979   0.057  1.00  0.00    +0.136 A 
ATOM      3  C   UNL     1       0.697   0.354   0.071  1.00  0.00    +0.102 A 
ATOM      4  C   UNL     1      -0.601   0.655   0.521  1.00  0.00    +0.084 A 
ATOM      5  C   UNL     1      -1.473  -0.385   0.910  1.00  0.00    +0.095 A 
ATOM      6  C   UNL     1       0.291  -2.012   0.440  1.00  0.00    +0.088 A 
ATOM      7  C   UNL     1      -0.996  -1.706   0.861  1.00  0.00    +0.151 A 
ATOM      8 Cl   UNL     1      -1.112   2.311   0.697  1.00  0.00    -0.081 Cl
ATOM      9  F   UNL     1      -1.811  -2.709   1.224  1.00  0.00    -0.204 F 
BRANCH   3  10
ATOM     10  C   UNL     1       1.635   1.410  -0.363  1.00  0.00    +0.254 C 
ATOM     11  N   UNL     1       1.233   2.193  -1.407  1.00  0.00    -0.365 N 
ATOM     12  O   UNL     1       2.727   1.554   0.171  1.00  0.00    -0.269 OA
ATOM     13  H   UNL     1       1.823   2.974  -1.665  1.00  0.00    +0.159 HD
ATOM     14  H   UNL     1       0.289   2.172  -1.774  1.00  0.00    +0.159 HD
ENDBRANCH   3  10
BRANCH   5  15
ATOM     15  N   UNL     1      -2.827  -0.174   1.291  1.00  0.00    -0.349 N 
ATOM     16  H   UNL     1      -3.178  -0.981   1.812  1.00  0.00    +0.167 HD
BRANCH  15  17
ATOM     17  C   UNL     1      -3.871   0.339   0.475  1.00  0.00    +0.075 A 
ATOM     18  C   UNL     1      -5.096   0.631   1.095  1.00  0.00    +0.030 A 
ATOM     19  C   UNL     1      -3.754   0.604  -0.899  1.00  0.00    +0.147 A 
ATOM     20  C   UNL     1      -6.165   1.162   0.366  1.00  0.00    +0.017 A 
ATOM     21  C   UNL     1      -4.814   1.131  -1.636  1.00  0.00    +0.056 A 
ATOM     22  C   UNL     1      -6.018   1.410  -0.998  1.00  0.00    +0.016 A 
ATOM     23  F   UNL     1      -2.619   0.325  -1.560  1.00  0.00    -0.205 F 
ATOM     24  I   UNL     1      -7.604   2.199  -2.083  1.00  0.00    -0.044 I 
ENDBRANCH  15  17
ENDBRANCH   5  15
ENDBRANCH   1   2
BRANCH   1  25
ATOM     25  C   UNL     1       3.290  -1.590   0.648  1.00  0.00    +0.263 C 
BRANCH  25  26
ATOM     26  C   UNL     1       4.723  -1.663   0.110  1.00  0.00    +0.177 C 
BRANCH  26  27
ATOM     27  O   UNL     1       5.606  -1.986   1.194  1.00  0.00    -0.387 OA
ATOM     28  H   UNL     1       5.859  -1.122   1.582  1.00  0.00    +0.211 HD
ENDBRANCH  26  27
BRANCH  26  29
ATOM     29  C   UNL     1       5.193  -0.354  -0.534  1.00  0.00    +0.191 C 
BRANCH  29  30
ATOM     30  O   UNL     1       5.250   0.674   0.458  1.00  0.00    -0.394 OA
ATOM     31  H   UNL     1       4.374   1.128   0.433  1.00  0.00    +0.210 HD
ENDBRANCH  29  30
ENDBRANCH  26  29
ENDBRANCH  25  26
ENDBRANCH   1  25
TORSDOF 9
