REMARK SMILES O=C1NN=C2[C@@H]1Nc1ccc(F)cc1[C@@H]2c1ccc(C(F)(F)F)cc1
REMARK SMILES IDX 19 1 18 2 17 3 16 4 25 5 24 6 20 7 21 8 22 9 23 10 15 11
REMARK SMILES IDX 14 12 5 13 13 14 8 15 4 16 6 17 11 18 9 19 7 20 3 21 2 22
REMARK SMILES IDX 10 23 1 24 12 25
REMARK H PARENT 7 26 3 27
ROOT
ATOM      1  C   UNL     1       3.523  -0.201   0.972  1.00  0.00    +0.056 A 
ATOM      2  C   UNL     1       2.341   0.032   1.689  1.00  0.00    +0.013 A 
ATOM      3  C   UNL     1       1.098  -0.020   1.052  1.00  0.00    +0.005 A 
ATOM      4  C   UNL     1       1.007  -0.311  -0.319  1.00  0.00    -0.035 A 
ATOM      5  C   UNL     1       2.194  -0.524  -1.037  1.00  0.00    +0.005 A 
ATOM      6  C   UNL     1       3.436  -0.470  -0.400  1.00  0.00    +0.013 A 
ENDROOT
BRANCH   1   7
ATOM      7  C   UNL     1       4.865  -0.121   1.657  1.00  0.00    +0.416 C 
ATOM      8  F   UNL     1       4.819  -0.494   2.967  1.00  0.00    -0.166 F 
ATOM      9  F   UNL     1       5.377   1.141   1.645  1.00  0.00    -0.166 F 
ATOM     10  F   UNL     1       5.810  -0.914   1.079  1.00  0.00    -0.166 F 
ENDBRANCH   1   7
BRANCH   4  11
ATOM     11  C   UNL     1      -0.326  -0.347  -1.059  1.00  0.00    +0.101 C 
ATOM     12  C   UNL     1      -1.487  -0.926  -0.253  1.00  0.00    -0.009 A 
ATOM     13  C   UNL     1      -0.674   1.022  -1.554  1.00  0.00    +0.082 C 
ATOM     14  C   UNL     1      -1.439  -2.275   0.143  1.00  0.00    +0.046 A 
ATOM     15  C   UNL     1      -2.613  -0.138   0.090  1.00  0.00    +0.039 A 
ATOM     16  N   UNL     1      -0.321   1.555  -2.690  1.00  0.00    -0.178 NA
ATOM     17  C   UNL     1      -1.525   1.890  -0.681  1.00  0.00    +0.219 C 
ATOM     18  C   UNL     1      -2.498  -2.832   0.849  1.00  0.00    +0.123 A 
ATOM     19  C   UNL     1      -3.682  -0.742   0.768  1.00  0.00    +0.029 A 
ATOM     20  N   UNL     1      -2.764   1.182  -0.360  1.00  0.00    -0.369 N 
ATOM     21  N   UNL     1      -0.931   2.786  -2.716  1.00  0.00    -0.245 N 
ATOM     22  C   UNL     1      -1.724   3.069  -1.607  1.00  0.00    +0.268 C 
ATOM     23  C   UNL     1      -3.620  -2.080   1.161  1.00  0.00    +0.041 A 
ATOM     24  O   UNL     1      -2.417   4.056  -1.425  1.00  0.00    -0.270 OA
ATOM     25  F   UNL     1      -2.439  -4.117   1.221  1.00  0.00    -0.207 F 
ATOM     26  H   UNL     1      -3.417   1.744   0.183  1.00  0.00    +0.161 HD
ATOM     27  H   UNL     1      -0.877   3.377  -3.538  1.00  0.00    +0.193 HD
ENDBRANCH   4  11
TORSDOF 2
