REMARK SMILES O=C1NN=C2[C@@H]1Nc1ccc(F)cc1[C@@H]2c1ccc(C(F)(F)F)cc1
REMARK SMILES IDX 16 1 17 2 18 3 19 4 24 5 25 6 15 7 1 8 2 9 3 10 6 11 4 12
REMARK SMILES IDX 5 13 7 14 8 15 14 16 9 17 13 18 10 19 11 20 12 23 20 24
REMARK SMILES IDX 21 25 22 26 23 27
REMARK H PARENT 3 21 7 22
ROOT
ATOM      1  C   UNL     1       0.974  -0.238  -0.431  1.00  0.00    -0.035 A 
ATOM      2  C   UNL     1       2.086  -0.335  -1.283  1.00  0.00    +0.005 A 
ATOM      3  C   UNL     1       3.385  -0.335  -0.767  1.00  0.00    +0.013 A 
ATOM      4  C   UNL     1       3.604  -0.224   0.612  1.00  0.00    +0.056 A 
ATOM      5  C   UNL     1       2.497  -0.124   1.465  1.00  0.00    +0.013 A 
ATOM      6  C   UNL     1       1.197  -0.122   0.950  1.00  0.00    +0.005 A 
ENDROOT
BRANCH   1   7
ATOM      7  C   UNL     1      -0.425  -0.209  -1.038  1.00  0.00    +0.101 C 
ATOM      8  O   UNL     1      -2.588   4.155  -0.621  1.00  0.00    -0.270 OA
ATOM      9  C   UNL     1      -1.906   3.217  -0.997  1.00  0.00    +0.268 C 
ATOM     10  N   UNL     1      -1.224   3.097  -2.205  1.00  0.00    -0.245 N 
ATOM     11  C   UNL     1      -1.605   1.933  -0.256  1.00  0.00    +0.219 C 
ATOM     12  N   UNL     1      -0.602   1.888  -2.399  1.00  0.00    -0.178 NA
ATOM     13  C   UNL     1      -0.835   1.204  -1.314  1.00  0.00    +0.082 C 
ATOM     14  N   UNL     1      -2.798   1.161   0.088  1.00  0.00    -0.369 N 
ATOM     15  C   UNL     1      -2.590  -0.202   0.345  1.00  0.00    +0.039 A 
ATOM     16  C   UNL     1      -1.495  -0.913  -0.205  1.00  0.00    -0.009 A 
ATOM     17  C   UNL     1      -3.580  -0.913   1.039  1.00  0.00    +0.029 A 
ATOM     18  C   UNL     1      -1.394  -2.301   0.005  1.00  0.00    +0.046 A 
ATOM     19  C   UNL     1      -3.465  -2.289   1.246  1.00  0.00    +0.041 A 
ATOM     20  C   UNL     1      -2.372  -2.968   0.732  1.00  0.00    +0.123 A 
ATOM     21  H   UNL     1      -1.257   3.790  -2.944  1.00  0.00    +0.193 HD
ATOM     22  H   UNL     1      -3.400   1.633   0.760  1.00  0.00    +0.161 HD
ATOM     23  F   UNL     1      -2.263  -4.289   0.926  1.00  0.00    -0.207 F 
ENDBRANCH   1   7
BRANCH   4  24
ATOM     24  C   UNL     1       5.005  -0.248   1.172  1.00  0.00    +0.416 C 
ATOM     25  F   UNL     1       5.420  -1.509   1.476  1.00  0.00    -0.166 F 
ATOM     26  F   UNL     1       5.935   0.255   0.312  1.00  0.00    -0.166 F 
ATOM     27  F   UNL     1       5.133   0.475   2.320  1.00  0.00    -0.166 F 
ENDBRANCH   4  24
TORSDOF 2
