REMARK SMILES CC[C@@]1(O)C(=O)OCc2c1cc1n(c2=O)Cc2c-1cc(F)c1c2CCCN1
REMARK SMILES IDX 3 1 5 2 6 3 7 4 8 5 9 6 10 7 11 8 12 9 13 10 14 11 15 12
REMARK SMILES IDX 16 13 17 14 18 15 19 16 20 17 21 18 22 19 23 20 24 21 25 22
REMARK SMILES IDX 26 23 27 24 2 26 1 27 4 28
REMARK H PARENT 27 25 4 29
ROOT
ATOM      1  C   UNL     1       4.092  -0.607  -0.313  1.00  0.00    +0.187 C 
ATOM      2  C   UNL     1       4.694  -1.465  -1.468  1.00  0.00    +0.343 C 
ATOM      3  O   UNL     1       5.447  -2.417  -1.281  1.00  0.00    -0.248 OA
ATOM      4  O   UNL     1       4.405  -1.066  -2.736  1.00  0.00    -0.458 OA
ATOM      5  C   UNL     1       3.420  -0.040  -2.987  1.00  0.00    +0.275 C 
ATOM      6  C   UNL     1       2.355  -0.028  -1.946  1.00  0.00    +0.062 C 
ATOM      7  C   UNL     1       2.636  -0.337  -0.662  1.00  0.00    +0.009 C 
ATOM      8  C   UNL     1       1.556  -0.372   0.315  1.00  0.00    +0.035 C 
ATOM      9  C   UNL     1       0.312  -0.067  -0.071  1.00  0.00    +0.052 C 
ATOM     10  N   UNL     1       0.033   0.275  -1.377  1.00  0.00    -0.303 N 
ATOM     11  C   UNL     1       0.970   0.328  -2.377  1.00  0.00    +0.258 C 
ATOM     12  O   UNL     1       0.720   0.639  -3.537  1.00  0.00    -0.269 OA
ATOM     13  C   UNL     1      -1.384   0.577  -1.571  1.00  0.00    +0.162 C 
ATOM     14  C   UNL     1      -1.955   0.358  -0.196  1.00  0.00    -0.013 A 
ATOM     15  C   UNL     1      -0.930  -0.025   0.692  1.00  0.00    +0.007 A 
ATOM     16  C   UNL     1      -1.196  -0.281   2.021  1.00  0.00    +0.052 A 
ATOM     17  C   UNL     1      -2.516  -0.158   2.449  1.00  0.00    +0.147 A 
ATOM     18  F   UNL     1      -2.793  -0.408   3.740  1.00  0.00    -0.205 F 
ATOM     19  C   UNL     1      -3.571   0.198   1.575  1.00  0.00    +0.074 A 
ATOM     20  C   UNL     1      -3.277   0.495   0.230  1.00  0.00    -0.016 A 
ATOM     21  C   UNL     1      -4.369   0.881  -0.731  1.00  0.00    +0.040 C 
ATOM     22  C   UNL     1      -5.638   1.328  -0.012  1.00  0.00    +0.026 C 
ATOM     23  C   UNL     1      -5.953   0.368   1.125  1.00  0.00    +0.113 C 
ATOM     24  N   UNL     1      -4.868   0.383   2.093  1.00  0.00    -0.382 N 
ATOM     25  H   UNL     1      -5.023  -0.187   2.924  1.00  0.00    +0.160 HD
ENDROOT
BRANCH   1  26
ATOM     26  C   UNL     1       4.371  -1.294   1.050  1.00  0.00    +0.049 C 
ATOM     27  C   UNL     1       4.384  -0.360   2.259  1.00  0.00    +0.008 C 
ENDBRANCH   1  26
BRANCH   1  28
ATOM     28  O   UNL     1       4.762   0.665  -0.328  1.00  0.00    -0.374 OA
ATOM     29  H   UNL     1       5.706   0.492  -0.156  1.00  0.00    +0.212 HD
ENDBRANCH   1  28
TORSDOF 2
