REMARK SMILES CO[C@@H]1C(=O)C2=C3C[C@@H](OC(=O)[C@@H](O)[C@@H](NC(=O)OC(C)(C)C)c4ccccc4)C[C@]3(O)C(C)(C)[C@@H]3C[C@H](OC(=O)c4ccccc4)[C@@]2(C)[C@]13C
REMARK SMILES IDX 11 1 12 2 13 3 15 4 16 5 17 6 18 7 19 9 20 10 21 11 22 12
REMARK SMILES IDX 23 13 24 14 25 15 29 16 26 17 28 18 27 19 14 20 10 22 9 23
REMARK SMILES IDX 30 24 8 25 31 26 7 27 6 28 4 29 48 30 5 31 3 32 38 33 50 34
REMARK SMILES IDX 37 35 36 36 49 37 51 38 32 40 33 42 34 43 35 44 2 46 1 47
REMARK SMILES IDX 39 48 40 49 41 50 42 51 43 52 47 53 44 54 46 55 45 56
REMARK H PARENT 16 8 14 21 32 41
REMARK Flexibility Score:  196.900
ROOT
ATOM      1  C   UNL     1       1.650  -0.044   1.156  1.00  0.00    +0.337 C 
ATOM      2  O   UNL     1       1.155  -0.470   2.191  1.00  0.00    -0.249 OA
ENDROOT
BRANCH   1   3
ATOM      3  C   UNL     1       3.149   0.039   0.852  1.00  0.00    +0.251 C 
BRANCH   3   4
ATOM      4  C   UNL     1       3.898   0.545   2.114  1.00  0.00    +0.156 C 
BRANCH   4   5
ATOM      5  N   UNL     1       5.343   0.572   1.927  1.00  0.00    -0.311 N 
ATOM      6  C   UNL     1       6.075  -0.565   1.795  1.00  0.00    +0.408 C 
ATOM      7  O   UNL     1       5.640  -1.692   1.959  1.00  0.00    -0.225 OA
ATOM      8  H   UNL     1       5.779   1.409   1.563  1.00  0.00    +0.167 HD
BRANCH   6   9
ATOM      9  O   UNL     1       7.335  -0.231   1.442  1.00  0.00    -0.444 OA
BRANCH   9  10
ATOM     10  C   UNL     1       8.336  -1.252   1.203  1.00  0.00    +0.106 C 
ATOM     11  C   UNL     1       9.625  -0.473   0.901  1.00  0.00    +0.056 C 
ATOM     12  C   UNL     1       7.971  -2.093  -0.024  1.00  0.00    +0.056 C 
ATOM     13  C   UNL     1       8.571  -2.121   2.444  1.00  0.00    +0.056 C 
ENDBRANCH   9  10
ENDBRANCH   6   9
ENDBRANCH   4   5
BRANCH   4  14
ATOM     14  C   UNL     1       3.420   1.911   2.600  1.00  0.00    -0.022 A 
ATOM     15  C   UNL     1       2.766   2.022   3.838  1.00  0.00    +0.006 A 
ATOM     16  C   UNL     1       3.603   3.075   1.838  1.00  0.00    +0.006 A 
ATOM     17  C   UNL     1       2.310   3.259   4.299  1.00  0.00    +0.000 A 
ATOM     18  C   UNL     1       3.150   4.312   2.302  1.00  0.00    +0.000 A 
ATOM     19  C   UNL     1       2.504   4.404   3.533  1.00  0.00    +0.000 A 
ENDBRANCH   4  14
ENDBRANCH   3   4
BRANCH   3  20
ATOM     20  O   UNL     1       3.472   0.841  -0.295  1.00  0.00    -0.379 OA
ATOM     21  H   UNL     1       2.691   0.803  -0.880  1.00  0.00    +0.211 HD
ENDBRANCH   3  20
ENDBRANCH   1   3
BRANCH   1  22
ATOM     22  O   UNL     1       0.940   0.395   0.074  1.00  0.00    -0.460 OA
BRANCH  22  23
ATOM     23  C   UNL     1      -0.485   0.433   0.251  1.00  0.00    +0.184 C 
ATOM     24  C   UNL     1      -1.109   1.171  -0.940  1.00  0.00    +0.086 C 
ATOM     25  C   UNL     1      -1.106  -0.964   0.229  1.00  0.00    +0.080 C 
ATOM     26  C   UNL     1      -1.429   0.087  -1.993  1.00  0.00    +0.095 C 
ATOM     27  C   UNL     1      -1.818  -1.064  -1.094  1.00  0.00    -0.027 C 
ATOM     28  C   UNL     1      -2.878  -1.872  -1.263  1.00  0.00    +0.010 C 
ATOM     29  C   UNL     1      -2.740  -2.581  -2.591  1.00  0.00    +0.188 C 
ATOM     30  C   UNL     1      -4.351  -1.431  -1.233  1.00  0.00    +0.042 C 
ATOM     31  O   UNL     1      -1.745  -3.229  -2.893  1.00  0.00    -0.292 OA
ATOM     32  C   UNL     1      -3.946  -2.364  -3.478  1.00  0.00    +0.196 C 
ATOM     33  C   UNL     1      -4.745  -0.066  -0.601  1.00  0.00    +0.188 C 
ATOM     34  C   UNL     1      -4.619  -1.186  -2.744  1.00  0.00    +0.018 C 
ATOM     35  C   UNL     1      -4.498   1.003  -1.675  1.00  0.00    +0.051 C 
ATOM     36  C   UNL     1      -3.983   0.268  -2.935  1.00  0.00    +0.011 CG0
ATOM     37  C   UNL     1      -5.147  -2.546  -0.536  1.00  0.00    +0.021 C 
ATOM     38  C   UNL     1      -6.123  -1.131  -3.116  1.00  0.00    +0.016 C 
ATOM     39  G   UNL     1      -2.417   0.519  -3.174  1.00  0.00    +0.000 G0
BRANCH  26  40
ATOM     40  O   UNL     1      -0.164  -0.264  -2.577  1.00  0.00    -0.385 OA
ATOM     41  H   UNL     1      -0.147  -1.234  -2.707  1.00  0.00    +0.211 HD
ENDBRANCH  26  40
BRANCH  26  42
ATOM     42  C   UNL     1      -2.417   0.519  -3.174  1.00  0.00    +0.001 CG0
ATOM     43  C   UNL     1      -2.227   2.047  -3.465  1.00  0.00    +0.015 C 
ATOM     44  C   UNL     1      -1.986  -0.118  -4.531  1.00  0.00    +0.015 C 
ATOM     45  G   UNL     1      -3.983   0.268  -2.935  1.00  0.00    +0.000 G0
ENDBRANCH  26  42
BRANCH  32  46
ATOM     46  O   UNL     1      -4.795  -3.506  -3.503  1.00  0.00    -0.373 OA
ATOM     47  C   UNL     1      -4.290  -4.551  -4.326  1.00  0.00    +0.196 C 
ENDBRANCH  32  46
BRANCH  33  48
ATOM     48  O   UNL     1      -4.055   0.184   0.629  1.00  0.00    -0.458 OA
BRANCH  48  49
ATOM     49  C   UNL     1      -4.510   1.246   1.345  1.00  0.00    +0.338 C 
ATOM     50  O   UNL     1      -5.419   1.994   1.024  1.00  0.00    -0.246 OA
BRANCH  49  51
ATOM     51  C   UNL     1      -3.679   1.435   2.557  1.00  0.00    +0.060 A 
ATOM     52  C   UNL     1      -3.495   2.736   3.042  1.00  0.00    +0.015 A 
ATOM     53  C   UNL     1      -3.083   0.355   3.218  1.00  0.00    +0.015 A 
ATOM     54  C   UNL     1      -2.695   2.956   4.164  1.00  0.00    +0.001 A 
ATOM     55  C   UNL     1      -2.277   0.580   4.335  1.00  0.00    +0.001 A 
ATOM     56  C   UNL     1      -2.083   1.879   4.805  1.00  0.00    +0.000 A 
ENDBRANCH  49  51
ENDBRANCH  48  49
ENDBRANCH  33  48
ENDBRANCH  22  23
ENDBRANCH   1  22
TORSDOF 14
