REMARK SMILES CC(C)(C)OC(=O)N[C@@H](c1ccccc1)[C@H](O)C(=O)O[C@@H]1CC2=C3C(=O)[C@@H](O)[C@]4(C)[C@@H](C[C@H](OC(=O)c5ccccc5)[C@]34C)C(C)(C)[C@@]2(O)C1
REMARK SMILES IDX 18 1 19 2 16 3 9 4 8 5 6 6 7 7 5 9 2 10 1 11 3 12 4 13 10 14
REMARK SMILES IDX 11 15 15 16 12 17 14 18 13 19 17 20 20 22 21 23 50 24 22 25
REMARK SMILES IDX 48 26 23 27 24 28 25 29 43 30 26 31 27 32 33 33 29 34 32 35
REMARK SMILES IDX 31 36 44 37 30 38 49 40 28 42 34 44 35 45 36 46 37 47 38 48
REMARK SMILES IDX 42 49 39 50 41 51 40 52 45 53 46 54 47 55
REMARK H PARENT 8 8 17 21 49 41 28 43
REMARK Flexibility Score:  196.900
ROOT
ATOM      1  C   UNL     1      -1.203   1.822   1.255  1.00  0.00    +0.337 C 
ATOM      2  O   UNL     1      -1.081   1.543   2.440  1.00  0.00    -0.249 OA
ENDROOT
BRANCH   1   3
ATOM      3  C   UNL     1      -2.521   2.122   0.533  1.00  0.00    +0.251 C 
BRANCH   3   4
ATOM      4  C   UNL     1      -3.661   1.238   1.093  1.00  0.00    +0.156 C 
BRANCH   4   5
ATOM      5  N   UNL     1      -4.934   1.625   0.497  1.00  0.00    -0.311 N 
ATOM      6  C   UNL     1      -6.120   1.517   1.149  1.00  0.00    +0.408 C 
ATOM      7  O   UNL     1      -6.248   1.261   2.335  1.00  0.00    -0.225 OA
ATOM      8  H   UNL     1      -4.982   1.728  -0.508  1.00  0.00    +0.167 HD
BRANCH   6   9
ATOM      9  O   UNL     1      -7.119   1.741   0.267  1.00  0.00    -0.444 OA
BRANCH   9  10
ATOM     10  C   UNL     1      -8.506   1.672   0.686  1.00  0.00    +0.106 C 
ATOM     11  C   UNL     1      -9.313   1.975  -0.586  1.00  0.00    +0.056 C 
ATOM     12  C   UNL     1      -8.826   2.744   1.734  1.00  0.00    +0.056 C 
ATOM     13  C   UNL     1      -8.871   0.266   1.174  1.00  0.00    +0.056 C 
ENDBRANCH   9  10
ENDBRANCH   6   9
ENDBRANCH   4   5
BRANCH   4  14
ATOM     14  C   UNL     1      -3.432  -0.259   0.902  1.00  0.00    -0.022 A 
ATOM     15  C   UNL     1      -3.472  -0.862  -0.365  1.00  0.00    +0.006 A 
ATOM     16  C   UNL     1      -3.189  -1.072   2.021  1.00  0.00    +0.006 A 
ATOM     17  C   UNL     1      -3.273  -2.237  -0.508  1.00  0.00    +0.000 A 
ATOM     18  C   UNL     1      -2.990  -2.446   1.877  1.00  0.00    +0.000 A 
ATOM     19  C   UNL     1      -3.034  -3.028   0.613  1.00  0.00    +0.000 A 
ENDBRANCH   4  14
ENDBRANCH   3   4
BRANCH   3  20
ATOM     20  O   UNL     1      -2.444   2.019  -0.899  1.00  0.00    -0.379 OA
ATOM     21  H   UNL     1      -1.711   1.392  -1.086  1.00  0.00    +0.211 HD
ENDBRANCH   3  20
ENDBRANCH   1   3
BRANCH   1  22
ATOM     22  O   UNL     1      -0.177   1.900   0.362  1.00  0.00    -0.460 OA
BRANCH  22  23
ATOM     23  C   UNL     1       1.071   1.320   0.774  1.00  0.00    +0.184 C 
ATOM     24  C   UNL     1       1.027  -0.202   0.590  1.00  0.00    +0.086 C 
ATOM     25  C   UNL     1       2.158   1.777  -0.197  1.00  0.00    +0.080 C 
ATOM     26  C   UNL     1       1.250  -0.428  -0.925  1.00  0.00    +0.095 CG0
ATOM     27  C   UNL     1       2.269   0.660  -1.209  1.00  0.00    -0.027 C 
ATOM     28  C   UNL     1       3.338   0.528  -2.010  1.00  0.00    +0.010 C 
ATOM     29  C   UNL     1       2.881   0.116  -3.391  1.00  0.00    +0.188 C 
ATOM     30  C   UNL     1       4.548  -0.385  -1.737  1.00  0.00    +0.042 C 
ATOM     31  O   UNL     1       2.077   0.761  -4.053  1.00  0.00    -0.292 OA
ATOM     32  C   UNL     1       3.531  -1.166  -3.843  1.00  0.00    +0.193 C 
ATOM     33  C   UNL     1       4.801  -0.958  -0.313  1.00  0.00    +0.188 C 
ATOM     34  C   UNL     1       4.128  -1.665  -2.522  1.00  0.00    +0.018 C 
ATOM     35  C   UNL     1       3.869  -2.163  -0.146  1.00  0.00    +0.051 C 
ATOM     36  C   UNL     1       3.119  -2.346  -1.486  1.00  0.00    +0.011 C 
ATOM     37  C   UNL     1       5.802   0.356  -2.228  1.00  0.00    +0.021 C 
ATOM     38  C   UNL     1       5.298  -2.636  -2.813  1.00  0.00    +0.016 C 
ATOM     39  G   UNL     1       1.571  -1.934  -1.369  1.00  0.00    +0.000 G0
BRANCH  26  40
ATOM     40  O   UNL     1       0.029  -0.011  -1.569  1.00  0.00    -0.385 OA
ATOM     41  H   UNL     1       0.275   0.394  -2.425  1.00  0.00    +0.211 HD
ENDBRANCH  26  40
BRANCH  32  42
ATOM     42  O   UNL     1       4.508  -0.879  -4.831  1.00  0.00    -0.384 OA
ATOM     43  H   UNL     1       4.041  -0.434  -5.564  1.00  0.00    +0.211 HD
ENDBRANCH  32  42
BRANCH  33  44
ATOM     44  O   UNL     1       4.582  -0.034   0.759  1.00  0.00    -0.458 OA
BRANCH  44  45
ATOM     45  C   UNL     1       5.677   0.610   1.237  1.00  0.00    +0.338 C 
ATOM     46  O   UNL     1       6.811   0.530   0.796  1.00  0.00    -0.246 OA
BRANCH  45  47
ATOM     47  C   UNL     1       5.301   1.476   2.383  1.00  0.00    +0.060 A 
ATOM     48  C   UNL     1       6.140   2.550   2.706  1.00  0.00    +0.015 A 
ATOM     49  C   UNL     1       4.151   1.239   3.147  1.00  0.00    +0.015 A 
ATOM     50  C   UNL     1       5.818   3.392   3.772  1.00  0.00    +0.001 A 
ATOM     51  C   UNL     1       3.832   2.085   4.211  1.00  0.00    +0.001 A 
ATOM     52  C   UNL     1       4.664   3.161   4.520  1.00  0.00    +0.000 A 
ENDBRANCH  45  47
ENDBRANCH  44  45
ENDBRANCH  33  44
BRANCH  36  53
ATOM     53  C   UNL     1       1.571  -1.934  -1.369  1.00  0.00    +0.001 CG0
ATOM     54  C   UNL     1       0.909  -2.924  -0.351  1.00  0.00    +0.015 C 
ATOM     55  C   UNL     1       0.828  -2.298  -2.692  1.00  0.00    +0.015 C 
ATOM     56  G   UNL     1       1.250  -0.428  -0.925  1.00  0.00    +0.000 G0
ENDBRANCH  36  53
ENDBRANCH  22  23
ENDBRANCH   1  22
TORSDOF 14
