REMARK SMILES NC[C@H](c1ccc(Cl)cc1)c1c[nH]c2nccc(-c3ccc(OCC(F)(F)F)cc3)c12
REMARK SMILES IDX 11 1 12 2 13 3 14 4 15 5 16 6 17 7 18 8 31 9 3 11 2 12 1 13
REMARK SMILES IDX 4 16 5 17 10 18 6 19 9 20 7 21 8 22 19 23 20 24 30 25 21 26
REMARK SMILES IDX 29 27 22 28 23 29 24 30 25 31 26 32 27 33 28 34
REMARK H PARENT 13 10 1 14 1 15
ROOT
ATOM      1  C   UNL     1      -2.167  -1.841   0.458  1.00  0.00    -0.012 A 
ATOM      2  C   UNL     1      -3.055  -2.758   1.015  1.00  0.00    +0.089 A 
ATOM      3  N   UNL     1      -2.485  -3.994   0.998  1.00  0.00    -0.346 N 
ATOM      4  C   UNL     1      -1.249  -3.923   0.433  1.00  0.00    +0.138 A 
ATOM      5  N   UNL     1      -0.474  -5.011   0.277  1.00  0.00    -0.239 NA
ATOM      6  C   UNL     1       0.711  -4.745  -0.294  1.00  0.00    +0.114 A 
ATOM      7  C   UNL     1       1.133  -3.491  -0.692  1.00  0.00    +0.029 A 
ATOM      8  C   UNL     1       0.293  -2.375  -0.510  1.00  0.00    -0.006 A 
ATOM      9  C   UNL     1      -0.981  -2.594   0.081  1.00  0.00    +0.030 A 
ATOM     10  H   UNL     1      -2.893  -4.854   1.333  1.00  0.00    +0.167 HD
ENDROOT
BRANCH   1  11
ATOM     11  C   UNL     1      -2.546  -0.376   0.298  1.00  0.00    +0.065 C 
BRANCH  11  12
ATOM     12  C   UNL     1      -2.779  -0.018  -1.196  1.00  0.00    +0.090 C 
BRANCH  12  13
ATOM     13  N   UNL     1      -3.653   1.149  -1.406  1.00  0.00    -0.330 NA
ATOM     14  H   UNL     1      -4.567   0.966  -0.993  1.00  0.00    +0.118 HD
ATOM     15  H   UNL     1      -3.811   1.267  -2.406  1.00  0.00    +0.118 HD
ENDBRANCH  12  13
ENDBRANCH  11  12
BRANCH  11  16
ATOM     16  C   UNL     1      -1.602   0.482   1.137  1.00  0.00    -0.039 A 
ATOM     17  C   UNL     1      -1.169   1.742   0.687  1.00  0.00    +0.006 A 
ATOM     18  C   UNL     1      -1.228   0.099   2.442  1.00  0.00    +0.006 A 
ATOM     19  C   UNL     1      -0.363   2.564   1.482  1.00  0.00    +0.021 A 
ATOM     20  C   UNL     1      -0.411   0.912   3.235  1.00  0.00    +0.021 A 
ATOM     21  C   UNL     1       0.023   2.139   2.748  1.00  0.00    +0.041 A 
ATOM     22 Cl   UNL     1       1.039   3.138   3.712  1.00  0.00    -0.084 Cl
ENDBRANCH  11  16
ENDBRANCH   1  11
BRANCH   8  23
ATOM     23  C   UNL     1       0.793  -1.063  -0.907  1.00  0.00    -0.017 A 
ATOM     24  C   UNL     1       0.644  -0.598  -2.218  1.00  0.00    +0.012 A 
ATOM     25  C   UNL     1       1.566  -0.300  -0.020  1.00  0.00    +0.012 A 
ATOM     26  C   UNL     1       1.207   0.620  -2.610  1.00  0.00    +0.047 A 
ATOM     27  C   UNL     1       2.139   0.915  -0.415  1.00  0.00    +0.047 A 
ATOM     28  C   UNL     1       1.949   1.389  -1.710  1.00  0.00    +0.119 A 
BRANCH  28  29
ATOM     29  O   UNL     1       2.432   2.556  -2.229  1.00  0.00    -0.484 OA
BRANCH  29  30
ATOM     30  C   UNL     1       3.061   3.494  -1.347  1.00  0.00    +0.344 C 
BRANCH  30  31
ATOM     31  C   UNL     1       4.568   3.306  -1.246  1.00  0.00    +0.422 C 
ATOM     32  F   UNL     1       5.162   3.344  -2.459  1.00  0.00    -0.167 F 
ATOM     33  F   UNL     1       5.110   4.303  -0.504  1.00  0.00    -0.167 F 
ATOM     34  F   UNL     1       4.904   2.142  -0.651  1.00  0.00    -0.167 F 
ENDBRANCH  30  31
ENDBRANCH  29  30
ENDBRANCH  28  29
ENDBRANCH   8  23
TORSDOF 8
