REMARK SMILES CN(C)C(=O)c1cc2cnc(Nc3ccc(N4CCNCC4)cn3)nc2n1C1CCCC1
REMARK SMILES IDX 12 1 11 3 6 4 7 5 27 6 8 7 26 8 9 9 25 10 10 11 4 12 2 13
REMARK SMILES IDX 5 14 1 15 3 16 28 17 29 18 32 19 30 20 31 21 13 22 14 23
REMARK SMILES IDX 24 24 15 25 23 26 16 27 17 28 18 29 22 30 19 31 21 32 20 33
REMARK H PARENT 12 2 20 34
ROOT
ATOM      1  N   UNL     1      -0.672   0.367   1.573  1.00  0.00    -0.309 N 
ATOM      2  H   UNL     1      -0.279   1.296   1.528  1.00  0.00    +0.171 HD
ENDROOT
BRANCH   1   3
ATOM      3  C   UNL     1       0.311  -0.500   1.091  1.00  0.00    +0.230 A 
ATOM      4  C   UNL     1       4.421  -1.571  -0.323  1.00  0.00    +0.109 A 
ATOM      5  C   UNL     1       3.525  -2.630  -0.222  1.00  0.00    +0.045 A 
ATOM      6  N   UNL     1       3.742  -0.432   0.089  1.00  0.00    -0.318 N 
ATOM      7  C   UNL     1       2.288  -2.125   0.235  1.00  0.00    +0.038 A 
ATOM      8  C   UNL     1       2.445  -0.765   0.421  1.00  0.00    +0.146 A 
ATOM      9  C   UNL     1       1.036  -2.644   0.535  1.00  0.00    +0.127 A 
ATOM     10  N   UNL     1       1.499   0.085   0.854  1.00  0.00    -0.194 NA
ATOM     11  N   UNL     1       0.060  -1.819   0.970  1.00  0.00    -0.221 NA
BRANCH   4  12
ATOM     12  C   UNL     1       5.823  -1.627  -0.699  1.00  0.00    +0.270 C 
ATOM     13  N   UNL     1       6.152  -2.313  -1.869  1.00  0.00    -0.343 N 
ATOM     14  O   UNL     1       6.688  -1.106   0.003  1.00  0.00    -0.267 OA
ATOM     15  C   UNL     1       5.209  -2.644  -2.928  1.00  0.00    +0.146 C 
ATOM     16  C   UNL     1       7.553  -2.560  -2.160  1.00  0.00    +0.146 C 
ENDBRANCH   4  12
BRANCH   6  17
ATOM     17  C   UNL     1       4.288   0.917   0.130  1.00  0.00    +0.089 C 
ATOM     18  C   UNL     1       4.250   1.577   1.522  1.00  0.00    +0.025 C 
ATOM     19  C   UNL     1       3.601   1.902  -0.831  1.00  0.00    +0.025 C 
ATOM     20  C   UNL     1       3.473   2.877   1.341  1.00  0.00    +0.002 C 
ATOM     21  C   UNL     1       3.692   3.243  -0.117  1.00  0.00    +0.002 C 
ENDBRANCH   6  17
ENDBRANCH   1   3
BRANCH   1  22
ATOM     22  C   UNL     1      -2.033   0.360   1.231  1.00  0.00    +0.132 A 
ATOM     23  C   UNL     1      -2.883   1.208   1.934  1.00  0.00    +0.049 A 
ATOM     24  N   UNL     1      -2.512  -0.426   0.253  1.00  0.00    -0.237 NA
ATOM     25  C   UNL     1      -4.249   1.242   1.628  1.00  0.00    +0.031 A 
ATOM     26  C   UNL     1      -3.844  -0.373  -0.017  1.00  0.00    +0.139 A 
ATOM     27  C   UNL     1      -4.786   0.438   0.621  1.00  0.00    +0.055 A 
BRANCH  27  28
ATOM     28  N   UNL     1      -6.133   0.445   0.308  1.00  0.00    -0.368 N 
ATOM     29  C   UNL     1      -6.736  -0.605  -0.530  1.00  0.00    +0.132 C 
ATOM     30  C   UNL     1      -6.993   1.592   0.645  1.00  0.00    +0.132 C 
ATOM     31  C   UNL     1      -8.255  -0.713  -0.258  1.00  0.00    +0.102 C 
ATOM     32  C   UNL     1      -8.178   1.719  -0.341  1.00  0.00    +0.102 C 
ATOM     33  N   UNL     1      -9.028   0.524  -0.475  1.00  0.00    -0.313 NA
ATOM     34  H   UNL     1      -9.776   0.558   0.217  1.00  0.00    +0.122 HD
ENDBRANCH  27  28
ENDBRANCH   1  22
TORSDOF 5
