REMARK SMILES COCCOC1CC2CCC(C)C(O)(C1)C(=O)C(=O)N1CCCCC1C(=O)OC(CC=CC=CC=C(C)CC(C)CC(OC)C(C)=O)C(C)(OC)CC2
REMARK SMILES IDX 48 1 49 2 52 3 53 4 8 5 7 6 6 7 5 8 4 9 3 10 2 11 1 12 15 13
REMARK SMILES IDX 13 14 11 15 12 16 14 18 16 20 17 21 9 23 10 24 29 26 28 27
REMARK SMILES IDX 26 28 27 29 25 30 24 31 20 32 23 33 21 34 22 35 18 36 19 37
REMARK SMILES IDX 30 39 31 40 32 41 33 42 34 43 35 44 36 45 37 46 38 47 39 48
REMARK SMILES IDX 40 49 41 50 42 51 43 52 44 53 45 54 47 55 46 56 50 57 51 58
REMARK H PARENT 14 19
REMARK Flexibility Score:  149.800
ROOT
ATOM      1  C   UNL     1       0.098  -0.246  -0.483  1.00  0.00    +0.102 C 
ATOM      2  C   UNL     1      -0.376  -1.123  -1.658  1.00  0.00    +0.046 C 
ENDROOT
BRANCH   1   3
ATOM      3  C   UNL     1      -0.441   1.226  -0.640  1.00  0.00    +0.039 C 
BRANCH   3   4
ATOM      4  C   UNL     1      -1.811   1.576  -0.042  1.00  0.00    +0.007 C 
BRANCH   4   5
ATOM      5  C   UNL     1      -2.839   2.297  -0.964  1.00  0.00    -0.008 C 
BRANCH   5   6
ATOM      6  C   UNL     1      -4.087   2.743  -0.160  1.00  0.00    +0.035 C 
BRANCH   6   7
ATOM      7  C   UNL     1      -4.867   1.715   0.685  1.00  0.00    +0.122 C 
BRANCH   7   8
ATOM      8  O   UNL     1      -5.736   2.479   1.557  1.00  0.00    -0.376 OA
BRANCH   8   9
ATOM      9  C   UNL     1      -5.196   2.625   2.878  1.00  0.00    +0.189 C 
BRANCH   9  10
ATOM     10  C   UNL     1      -6.143   3.472   3.732  1.00  0.00    +0.188 C 
BRANCH  10  11
ATOM     11  O   UNL     1      -7.228   2.723   4.293  1.00  0.00    -0.382 OA
ATOM     12  C   UNL     1      -8.159   2.265   3.320  1.00  0.00    +0.195 C 
ENDBRANCH  10  11
ENDBRANCH   9  10
ENDBRANCH   8   9
ENDBRANCH   7   8
BRANCH   7  13
ATOM     13  C   UNL     1      -5.818   0.780  -0.081  1.00  0.00    +0.076 C 
BRANCH  13  14
ATOM     14  C   UNL     1      -5.173  -0.291  -0.976  1.00  0.00    +0.137 C 
BRANCH  14  15
ATOM     15  C   UNL     1      -5.202   0.048  -2.485  1.00  0.00    +0.026 CG0
ATOM     16  C   UNL     1      -6.613   0.018  -3.091  1.00  0.00    +0.011 C 
ATOM     17  G   UNL     1      -4.531   1.405  -2.838  1.00  0.00    +0.000 G0
ENDBRANCH  14  15
BRANCH  14  18
ATOM     18  O   UNL     1      -3.798  -0.401  -0.617  1.00  0.00    -0.381 OA
ATOM     19  H   UNL     1      -3.366  -1.008  -1.252  1.00  0.00    +0.212 HD
ENDBRANCH  14  18
BRANCH  14  20
ATOM     20  C   UNL     1      -5.757  -1.689  -0.651  1.00  0.00    +0.251 CG1
ATOM     21  O   UNL     1      -6.942  -1.987  -0.595  1.00  0.00    -0.285 OA
ATOM     22  G   UNL     1      -4.684  -2.746  -0.392  1.00  0.00    +0.000 G1
ENDBRANCH  14  20
ENDBRANCH  13  14
ENDBRANCH   7  13
ENDBRANCH   6   7
ENDBRANCH   5   6
BRANCH   5  23
ATOM     23  C   UNL     1      -3.089   1.615  -2.341  1.00  0.00    +0.004 C 
BRANCH  23  24
ATOM     24  C   UNL     1      -4.531   1.405  -2.838  1.00  0.00    +0.007 CG0
ATOM     25  G   UNL     1      -5.202   0.048  -2.485  1.00  0.00    +0.000 G0
ENDBRANCH  23  24
ENDBRANCH   5  23
ENDBRANCH   4   5
ENDBRANCH   3   4
ENDBRANCH   1   3
BRANCH   1  26
ATOM     26  C   UNL     1      -0.300  -0.921   0.909  1.00  0.00    +0.212 C 
BRANCH  26  27
ATOM     27  O   UNL     1      -1.289  -1.992   0.723  1.00  0.00    -0.457 OA
BRANCH  27  28
ATOM     28  C   UNL     1      -2.367  -2.022   1.554  1.00  0.00    +0.329 C 
ATOM     29  O   UNL     1      -2.672  -1.114   2.322  1.00  0.00    -0.250 OA
BRANCH  28  30
ATOM     30  C   UNL     1      -3.190  -3.331   1.450  1.00  0.00    +0.195 C 
ATOM     31  C   UNL     1      -2.510  -4.549   0.816  1.00  0.00    +0.037 C 
ATOM     32  N   UNL     1      -4.561  -3.148   0.940  1.00  0.00    -0.322 N 
ATOM     33  C   UNL     1      -3.519  -5.686   0.561  1.00  0.00    +0.005 C 
ATOM     34  C   UNL     1      -5.476  -4.219   1.325  1.00  0.00    +0.121 C 
ATOM     35  C   UNL     1      -4.763  -5.579   1.451  1.00  0.00    +0.022 C 
BRANCH  32  36
ATOM     36  C   UNL     1      -4.684  -2.746  -0.392  1.00  0.00    +0.293 CG1
ATOM     37  O   UNL     1      -3.881  -2.972  -1.291  1.00  0.00    -0.266 OA
ATOM     38  G   UNL     1      -5.757  -1.689  -0.651  1.00  0.00    +0.000 G1
ENDBRANCH  32  36
ENDBRANCH  28  30
ENDBRANCH  27  28
ENDBRANCH  26  27
BRANCH  26  39
ATOM     39  C   UNL     1       0.868  -1.589   1.681  1.00  0.00    +0.075 C 
BRANCH  39  40
ATOM     40  C   UNL     1       1.647  -0.641   2.559  1.00  0.00    -0.023 C 
ATOM     41  C   UNL     1       2.961  -0.363   2.542  1.00  0.00    -0.004 C 
BRANCH  41  42
ATOM     42  C   UNL     1       3.932  -0.892   1.612  1.00  0.00    -0.000 C 
ATOM     43  C   UNL     1       5.259  -0.681   1.603  1.00  0.00    -0.000 C 
BRANCH  43  44
ATOM     44  C   UNL     1       6.042   0.072   2.562  1.00  0.00    -0.001 C 
ATOM     45  C   UNL     1       7.348   0.390   2.440  1.00  0.00    -0.073 C 
ATOM     46  C   UNL     1       8.056   1.123   3.551  1.00  0.00    +0.039 C 
BRANCH  45  47
ATOM     47  C   UNL     1       8.214   0.032   1.246  1.00  0.00    +0.034 C 
BRANCH  47  48
ATOM     48  C   UNL     1       7.954   0.902  -0.010  1.00  0.00    -0.007 C 
ATOM     49  C   UNL     1       8.390   2.353   0.217  1.00  0.00    +0.008 C 
BRANCH  48  50
ATOM     50  C   UNL     1       8.680   0.274  -1.219  1.00  0.00    +0.043 C 
BRANCH  50  51
ATOM     51  C   UNL     1       8.365   0.899  -2.588  1.00  0.00    +0.184 C 
BRANCH  51  52
ATOM     52  O   UNL     1       9.216   0.244  -3.533  1.00  0.00    -0.374 OA
ATOM     53  C   UNL     1       9.143   0.802  -4.838  1.00  0.00    +0.195 C 
ENDBRANCH  51  52
BRANCH  51  54
ATOM     54  C   UNL     1       6.867   0.734  -2.911  1.00  0.00    +0.158 C 
ATOM     55  O   UNL     1       6.349  -0.357  -3.154  1.00  0.00    -0.297 OA
ATOM     56  C   UNL     1       6.045   1.998  -2.939  1.00  0.00    +0.090 C 
ENDBRANCH  51  54
ENDBRANCH  50  51
ENDBRANCH  48  50
ENDBRANCH  47  48
ENDBRANCH  45  47
ENDBRANCH  43  44
ENDBRANCH  41  42
ENDBRANCH  39  40
ENDBRANCH  26  39
ENDBRANCH   1  26
BRANCH   1  57
ATOM     57  O   UNL     1       1.546  -0.171  -0.523  1.00  0.00    -0.375 OA
ATOM     58  C   UNL     1       2.176   0.257  -1.721  1.00  0.00    +0.195 C 
ENDBRANCH   1  57
TORSDOF 16
