REMARK SMILES Cc1sc(NC(=O)N2CCC[C@H]2C)nc1-c1ccc(C(C)(C)C#N)cn1
REMARK SMILES IDX 15 1 14 2 4 3 3 4 2 5 1 6 16 7 19 8 18 9 25 10 17 11 26 12
REMARK SMILES IDX 20 13 23 14 24 15 21 16 22 17 5 18 6 19 7 20 8 22 9 23 12 24
REMARK SMILES IDX 10 25 11 26 13 27
REMARK H PARENT 5 21
ROOT
ATOM      1  C   UNL     1       0.811  -0.147  -1.021  1.00  0.00    +0.105 A 
ATOM      2  N   UNL     1      -0.254  -0.067  -0.119  1.00  0.00    -0.218 NA
ATOM      3  C   UNL     1      -1.392  -0.010  -0.768  1.00  0.00    +0.191 A 
ATOM      4  S   UNL     1      -1.286  -0.088  -2.460  1.00  0.00    -0.101 S 
ATOM      5  C   UNL     1       0.429  -0.169  -2.356  1.00  0.00    +0.033 A 
ATOM      6  C   UNL     1       1.238  -0.251  -3.605  1.00  0.00    +0.059 C 
ENDROOT
BRANCH   1   7
ATOM      7  C   UNL     1       2.193  -0.204  -0.532  1.00  0.00    +0.090 A 
ATOM      8  C   UNL     1       4.831  -0.311   0.367  1.00  0.00    -0.010 A 
ATOM      9  C   UNL     1       3.776  -0.221   1.282  1.00  0.00    +0.009 A 
ATOM     10  C   UNL     1       4.462  -0.340  -0.982  1.00  0.00    +0.117 A 
ATOM     11  C   UNL     1       2.454  -0.169   0.834  1.00  0.00    +0.031 A 
ATOM     12  N   UNL     1       3.190  -0.286  -1.442  1.00  0.00    -0.254 NA
BRANCH   8  13
ATOM     13  C   UNL     1       6.308  -0.353   0.771  1.00  0.00    +0.078 C 
ATOM     14  C   UNL     1       6.998  -1.501   0.121  1.00  0.00    +0.073 C 
ATOM     15  N   UNL     1       7.547  -2.385  -0.393  1.00  0.00    -0.197 NA
ATOM     16  C   UNL     1       6.988   0.956   0.318  1.00  0.00    +0.033 C 
ATOM     17  C   UNL     1       6.532  -0.494   2.293  1.00  0.00    +0.033 C 
ENDBRANCH   8  13
ENDBRANCH   1   7
BRANCH   3  18
ATOM     18  N   UNL     1      -2.584   0.044  -0.094  1.00  0.00    -0.283 N 
ATOM     19  C   UNL     1      -3.819   0.327  -0.618  1.00  0.00    +0.323 C 
ATOM     20  O   UNL     1      -4.045   0.675  -1.772  1.00  0.00    -0.248 OA
ATOM     21  H   UNL     1      -2.474   0.092   0.903  1.00  0.00    +0.174 HD
BRANCH  19  22
ATOM     22  N   UNL     1      -4.851   0.201   0.306  1.00  0.00    -0.322 N 
ATOM     23  C   UNL     1      -4.796  -0.583   1.535  1.00  0.00    +0.122 C 
ATOM     24  C   UNL     1      -6.236   0.507  -0.058  1.00  0.00    +0.083 C 
ATOM     25  C   UNL     1      -6.222  -1.071   1.739  1.00  0.00    +0.024 C 
ATOM     26  C   UNL     1      -7.050   0.067   1.165  1.00  0.00    +0.027 C 
ATOM     27  C   UNL     1      -6.475   1.980  -0.372  1.00  0.00    +0.031 C 
ENDBRANCH  19  22
ENDBRANCH   3  18
TORSDOF 4
