REMARK SMILES CC(=O)O[C@H]1C(=O)[C@@]2(C)[C@H](O)C[C@H]3OC[C@@]3(OC(C)=O)[C@H]2[C@H](OC(=O)c2ccccc2)[C@]2(O)C[C@@H](OC(=O)[C@H](O)[C@@H](NC(=O)c3ccccc3)c3ccccc3)C(C)=C1C2(C)C
REMARK SMILES IDX 32 1 34 2 35 3 57 4 58 5 59 6 60 7 61 8 62 9 5 10 4 12 2 13
REMARK SMILES IDX 3 14 1 15 36 16 37 17 38 18 39 19 40 20 41 22 42 23 43 24
REMARK SMILES IDX 44 25 45 27 46 28 50 29 47 30 49 31 48 32 51 33 52 34 56 35
REMARK SMILES IDX 53 36 55 37 54 38 22 39 21 40 16 41 8 42 15 43 13 44 10 45
REMARK SMILES IDX 14 46 12 47 9 48 17 49 18 50 20 51 19 52 6 53 7 54 11 56
REMARK SMILES IDX 23 58 24 59 25 60 26 61 27 62 31 63 28 64 30 65 29 66 33 67
REMARK H PARENT 40 21 42 26 11 57 33 68
REMARK Flexibility Score:  233.900
ROOT
ATOM      1  C   UNL     1      -1.718  -1.348   1.368  1.00  0.00    +0.115 C 
ATOM      2  C   UNL     1      -0.242  -0.998   1.717  1.00  0.00    +0.090 C 
ATOM      3  C   UNL     1       0.633  -0.659   0.494  1.00  0.00    +0.205 C 
ATOM      4  C   UNL     1       0.062  -1.077  -0.864  1.00  0.00    -0.029 C 
ATOM      5  C   UNL     1       0.864  -0.534  -2.028  1.00  0.00    +0.043 C 
ATOM      6  C   UNL     1      -1.104  -1.776  -0.980  1.00  0.00    -0.011 C 
ATOM      7  C   UNL     1      -1.665  -2.462   0.272  1.00  0.00    +0.023 C 
ATOM      8  C   UNL     1      -0.694  -3.643   0.623  1.00  0.00    +0.019 C 
ATOM      9  C   UNL     1      -3.013  -3.198   0.199  1.00  0.00    +0.019 C 
ENDROOT
BRANCH   6  10
ATOM     10  C   UNL     1      -1.905  -1.823  -2.265  1.00  0.00    +0.270 CG0
ATOM     11  G   UNL     1      -3.358  -1.303  -2.035  1.00  0.00    +0.000 G0
BRANCH  10  12
ATOM     12  O   UNL     1      -1.868  -3.169  -2.742  1.00  0.00    -0.450 OA
BRANCH  12  13
ATOM     13  C   UNL     1      -2.215  -3.307  -4.050  1.00  0.00    +0.303 C 
ATOM     14  O   UNL     1      -2.453  -2.386  -4.820  1.00  0.00    -0.253 OA
ATOM     15  C   UNL     1      -2.244  -4.757  -4.423  1.00  0.00    +0.139 C 
ENDBRANCH  12  13
ENDBRANCH  10  12
ENDBRANCH   6  10
BRANCH   3  16
ATOM     16  O   UNL     1       1.943  -1.236   0.632  1.00  0.00    -0.456 OA
BRANCH  16  17
ATOM     17  C   UNL     1       2.767  -0.580   1.490  1.00  0.00    +0.338 C 
ATOM     18  O   UNL     1       2.447   0.347   2.230  1.00  0.00    -0.249 OA
BRANCH  17  19
ATOM     19  C   UNL     1       4.182  -1.145   1.460  1.00  0.00    +0.251 C 
BRANCH  19  20
ATOM     20  O   UNL     1       4.937  -0.586   2.560  1.00  0.00    -0.379 OA
ATOM     21  H   UNL     1       4.425   0.194   2.861  1.00  0.00    +0.211 HD
ENDBRANCH  19  20
BRANCH  19  22
ATOM     22  C   UNL     1       4.854  -0.820   0.102  1.00  0.00    +0.153 C 
BRANCH  22  23
ATOM     23  N   UNL     1       5.278   0.577   0.030  1.00  0.00    -0.342 N 
ATOM     24  C   UNL     1       4.468   1.567  -0.474  1.00  0.00    +0.251 C 
ATOM     25  O   UNL     1       3.382   1.349  -0.999  1.00  0.00    -0.269 OA
ATOM     26  H   UNL     1       6.180   0.801   0.430  1.00  0.00    +0.164 HD
BRANCH  24  27
ATOM     27  C   UNL     1       4.987   2.954  -0.374  1.00  0.00    +0.039 A 
ATOM     28  C   UNL     1       4.695   3.851  -1.408  1.00  0.00    +0.014 A 
ATOM     29  C   UNL     1       5.722   3.385   0.737  1.00  0.00    +0.014 A 
ATOM     30  C   UNL     1       5.152   5.168  -1.342  1.00  0.00    +0.001 A 
ATOM     31  C   UNL     1       6.176   4.704   0.800  1.00  0.00    +0.001 A 
ATOM     32  C   UNL     1       5.894   5.592  -0.239  1.00  0.00    +0.000 A 
ENDBRANCH  24  27
ENDBRANCH  22  23
BRANCH  22  33
ATOM     33  C   UNL     1       6.048  -1.705  -0.241  1.00  0.00    -0.022 A 
ATOM     34  C   UNL     1       6.258  -2.072  -1.582  1.00  0.00    +0.006 A 
ATOM     35  C   UNL     1       6.981  -2.129   0.718  1.00  0.00    +0.006 A 
ATOM     36  C   UNL     1       7.350  -2.862  -1.947  1.00  0.00    +0.000 A 
ATOM     37  C   UNL     1       8.073  -2.920   0.351  1.00  0.00    +0.000 A 
ATOM     38  C   UNL     1       8.255  -3.288  -0.980  1.00  0.00    +0.000 A 
ENDBRANCH  22  33
ENDBRANCH  19  22
ENDBRANCH  17  19
ENDBRANCH  16  17
ENDBRANCH   3  16
BRANCH   1  39
ATOM     39  C   UNL     1      -2.579  -0.003   1.082  1.00  0.00    +0.218 C 
BRANCH  39  40
ATOM     40  C   UNL     1      -3.809   0.214   0.080  1.00  0.00    +0.098 C 
ATOM     41  C   UNL     1      -5.224  -0.203   0.647  1.00  0.00    +0.169 C 
ATOM     42  C   UNL     1      -3.615   0.129  -1.497  1.00  0.00    +0.067 C 
ATOM     43  C   UNL     1      -6.025  -1.566   0.510  1.00  0.00    +0.212 C 
ATOM     44  C   UNL     1      -6.380   0.258  -0.329  1.00  0.00    +0.168 C 
ATOM     45  C   UNL     1      -4.884   0.686  -2.259  1.00  0.00    +0.131 C 
ATOM     46  O   UNL     1      -7.232  -0.817   0.170  1.00  0.00    -0.370 OA
ATOM     47  C   UNL     1      -6.227   0.123  -1.832  1.00  0.00    +0.069 C 
ATOM     48  C   UNL     1      -2.474   1.074  -1.965  1.00  0.00    +0.023 C 
BRANCH  41  49
ATOM     49  O   UNL     1      -5.414   0.479   1.939  1.00  0.00    -0.454 OA
BRANCH  49  50
ATOM     50  C   UNL     1      -5.193  -0.244   3.067  1.00  0.00    +0.303 C 
ATOM     51  O   UNL     1      -4.723  -1.374   3.084  1.00  0.00    -0.253 OA
ATOM     52  C   UNL     1      -5.548   0.555   4.281  1.00  0.00    +0.139 C 
ENDBRANCH  49  50
ENDBRANCH  41  49
BRANCH  42  53
ATOM     53  C   UNL     1      -3.358  -1.303  -2.035  1.00  0.00    +0.186 CG0
ATOM     54  O   UNL     1      -4.314  -2.053  -2.267  1.00  0.00    -0.294 OA
ATOM     55  G   UNL     1      -1.905  -1.823  -2.265  1.00  0.00    +0.000 G0
ENDBRANCH  42  53
BRANCH  45  56
ATOM     56  O   UNL     1      -4.969   2.110  -2.100  1.00  0.00    -0.392 OA
ATOM     57  H   UNL     1      -5.645   2.439  -2.722  1.00  0.00    +0.210 HD
ENDBRANCH  45  56
ENDBRANCH  39  40
BRANCH  39  58
ATOM     58  O   UNL     1      -1.659   1.117   0.842  1.00  0.00    -0.455 OA
BRANCH  58  59
ATOM     59  C   UNL     1      -1.788   2.213   1.643  1.00  0.00    +0.338 C 
ATOM     60  O   UNL     1      -2.641   2.370   2.503  1.00  0.00    -0.246 OA
BRANCH  59  61
ATOM     61  C   UNL     1      -0.716   3.208   1.375  1.00  0.00    +0.060 A 
ATOM     62  C   UNL     1      -0.476   4.195   2.340  1.00  0.00    +0.015 A 
ATOM     63  C   UNL     1       0.052   3.192   0.206  1.00  0.00    +0.015 A 
ATOM     64  C   UNL     1       0.534   5.140   2.146  1.00  0.00    +0.001 A 
ATOM     65  C   UNL     1       1.063   4.136   0.016  1.00  0.00    +0.001 A 
ATOM     66  C   UNL     1       1.307   5.106   0.987  1.00  0.00    +0.000 A 
ENDBRANCH  59  61
ENDBRANCH  58  59
ENDBRANCH  39  58
ENDBRANCH   1  39
BRANCH   1  67
ATOM     67  O   UNL     1      -2.196  -1.955   2.592  1.00  0.00    -0.385 OA
ATOM     68  H   UNL     1      -3.174  -1.905   2.648  1.00  0.00    +0.211 HD
ENDBRANCH   1  67
TORSDOF 17
