REMARK SMILES COc1cc([C@H]2[C]3C(=O)OC[C@@H]3[C@H](O[C@@H]3O[C@H]4COC(C)O[C@H]4[C@H]3O)c3cc4c(cc32)OCO4)cc(OC)c1O
REMARK SMILES IDX 6 1 31 2 30 3 29 4 28 5 27 6 26 7 13 8 12 9 11 10 10 11 8 12
REMARK SMILES IDX 9 13 7 14 34 15 33 16 32 17 5 18 3 19 4 20 39 21 36 22 35 23
REMARK SMILES IDX 2 24 1 25 40 26 37 28 38 29 14 30 15 31 16 32 24 33 17 34
REMARK SMILES IDX 23 35 18 36 22 37 19 38 20 39 21 40 25 41
REMARK H PARENT 40 27 25 42
ROOT
ATOM      1  C   UNL     1      -1.750  -0.485   0.250  1.00  0.00    +0.069 C 
ATOM      2  C   UNL     1      -1.290   0.801   0.964  1.00  0.00    -0.030 A 
ATOM      3  C   UNL     1      -2.015   1.269   2.079  1.00  0.00    +0.055 A 
ATOM      4  C   UNL     1      -1.594   2.425   2.699  1.00  0.00    +0.166 A 
ATOM      5  C   UNL     1      -0.488   3.115   2.271  1.00  0.00    +0.166 A 
ATOM      6  C   UNL     1       0.270   2.686   1.204  1.00  0.00    +0.057 A 
ATOM      7  C   UNL     1      -0.120   1.507   0.541  1.00  0.00    -0.011 A 
ATOM      8  C   UNL     1       0.748   0.964  -0.586  1.00  0.00    +0.160 C 
ATOM      9  C   UNL     1      -0.148   0.287  -1.637  1.00  0.00    +0.080 C 
ATOM     10  C   UNL     1       0.594  -0.547  -2.659  1.00  0.00    +0.240 C 
ATOM     11  O   UNL     1       0.598  -1.901  -2.189  1.00  0.00    -0.465 OA
ATOM     12  C   UNL     1      -0.367  -2.068  -1.245  1.00  0.00    +0.314 C 
ATOM     13  O   UNL     1      -0.662  -3.108  -0.691  1.00  0.00    -0.252 OA
ATOM     14  C   UNL     1      -0.960  -0.763  -0.981  1.00  0.00    +0.105 C 
ATOM     15  O   UNL     1      -0.245   4.224   3.019  1.00  0.00    -0.454 OA
ATOM     16  C   UNL     1      -1.326   4.151   3.972  1.00  0.00    +0.468 C 
ATOM     17  O   UNL     1      -2.189   3.013   3.771  1.00  0.00    -0.454 OA
ENDROOT
BRANCH   1  18
ATOM     18  C   UNL     1      -3.237  -0.506  -0.108  1.00  0.00    -0.032 A 
ATOM     19  C   UNL     1      -5.239   0.561  -0.985  1.00  0.00    +0.164 A 
ATOM     20  C   UNL     1      -3.887   0.620  -0.650  1.00  0.00    +0.055 A 
ATOM     21  C   UNL     1      -5.935  -0.643  -0.805  1.00  0.00    +0.200 A 
ATOM     22  C   UNL     1      -5.311  -1.786  -0.295  1.00  0.00    +0.164 A 
ATOM     23  C   UNL     1      -3.960  -1.706   0.052  1.00  0.00    +0.055 A 
BRANCH  19  24
ATOM     24  O   UNL     1      -5.986   1.591  -1.501  1.00  0.00    -0.493 OA
ATOM     25  C   UNL     1      -5.356   2.864  -1.574  1.00  0.00    +0.278 C 
ENDBRANCH  19  24
BRANCH  21  26
ATOM     26  O   UNL     1      -7.267  -0.692  -1.147  1.00  0.00    -0.502 OA
ATOM     27  H   UNL     1      -7.479   0.201  -1.476  1.00  0.00    +0.293 HD
ENDBRANCH  21  26
BRANCH  22  28
ATOM     28  O   UNL     1      -6.090  -2.905  -0.173  1.00  0.00    -0.493 OA
ATOM     29  C   UNL     1      -5.446  -4.111   0.213  1.00  0.00    +0.278 C 
ENDBRANCH  22  28
ENDBRANCH   1  18
BRANCH   8  30
ATOM     30  O   UNL     1       1.635  -0.001  -0.013  1.00  0.00    -0.341 OA
BRANCH  30  31
ATOM     31  C   UNL     1       2.936   0.513   0.247  1.00  0.00    +0.282 C 
ATOM     32  O   UNL     1       3.649   0.661  -0.989  1.00  0.00    -0.341 OA
ATOM     33  C   UNL     1       3.726  -0.493   1.093  1.00  0.00    +0.202 C 
ATOM     34  C   UNL     1       4.330  -0.584  -1.252  1.00  0.00    +0.179 C 
ATOM     35  C   UNL     1       4.260  -1.430   0.012  1.00  0.00    +0.186 C 
ATOM     36  C   UNL     1       5.772  -0.352  -1.682  1.00  0.00    +0.198 C 
ATOM     37  O   UNL     1       5.466  -2.132   0.278  1.00  0.00    -0.344 OA
ATOM     38  O   UNL     1       6.600  -0.163  -0.541  1.00  0.00    -0.350 OA
ATOM     39  C   UNL     1       6.633  -1.309   0.311  1.00  0.00    +0.247 C 
ATOM     40  C   UNL     1       7.826  -2.178  -0.066  1.00  0.00    +0.071 C 
BRANCH  33  41
ATOM     41  O   UNL     1       4.751   0.164   1.840  1.00  0.00    -0.385 OA
ATOM     42  H   UNL     1       4.320   0.693   2.533  1.00  0.00    +0.211 HD
ENDBRANCH  33  41
ENDBRANCH  30  31
ENDBRANCH   8  30
TORSDOF 7
